<LesHouchesEvents version="3.0">
  <!--
  <scalesfunctionalform>
    muR  FxFx merging scale
    muF1 FxFx merging scale
    muF2 FxFx merging scale
    QES  H_T/2 := sum_i mT(i)/2, i=final state
  </scalesfunctionalform>
PYTHIA8   
  -->
  <header>
       57
  </header>
  <init>
   2212   2212 0.65000000D+04 0.65000000D+04 -1 -1 306000 306000 -4   1
 0.21905764D+03 0.36168758D+01 0.11644275D+02     66
  </init>
  <event npLO=' -1 ' npNLO=' 1 '>
  7     66 0.11644275E+02 0.11238656E+02 0.75467711E-02 0.15300449E+00
       21 -1    0    0  501  502 0.00000000E+00 0.00000000E+00 0.46498516E+02 0.46498516E+02 0.00000000E+00 0.0000E+00 0.9000E+01
        1 -1    0    0  503    0 0.00000000E+00 0.00000000E+00 -.10568580E+03 0.10568580E+03 0.00000000E+00 0.0000E+00 0.9000E+01
       23  2    1    2    0    0 -.14763557E+02 -.13075882E+02 -.43799185E+02 0.10285001E+03 0.90944015E+02 0.0000E+00 0.0000E+00
      -13  1    3    3    0    0 0.29354457E+02 0.94160295E+01 0.73127954E+01 0.31683162E+02 0.00000000E+00 0.0000E+00 0.9000E+01
       13  1    3    3    0    0 -.44118014E+02 -.22491912E+02 -.51111980E+02 0.71166845E+02 0.00000000E+00 0.0000E+00 0.9000E+01
        1  1    1    2  501    0 0.20683570E+02 -.79373428E+01 -.16267602E+02 0.27485385E+02 0.00000000E+00 0.0000E+00 0.9000E+01
       21  1    1    2  503  502 -.59200132E+01 0.21013225E+02 0.87949885E+00 0.21848929E+02 0.00000000E+00 0.0000E+00 0.9000E+01
#aMCatNLO 2  0  0  2  1 0.53641476D+02 0.00000000D+00  -5  6  0 0.00000000D+00 0.00000000D+00 0.00000000D+00 0.00000000D+00 0.00000000D+00
  <mgrwgt>
 0.1744718702D+03    1    2    0
 0.567950109999692D+02 0.000000000000000D+00 0.000000000000000D+00 0.567950109999692D+02
 0.567950109999692D+02 0.000000000000000D+00 0.000000000000000D+00 -.567950109999692D+02
 0.404329154876619D+02 0.272904490993828D+02 0.167422736518238D+02 0.246930823461521D+02
 0.527685234917138D+02 -.468659476904695D+02 -.127380575449509D+02 -.206359373073102D+02
 0.203885830205628D+02 0.195754985910868D+02 -.400421610687291D+01 -.405714503884189D+01
 0.000000000000000D+00 -.000000000000000D+00 0.000000000000000D+00 0.000000000000000D+00
 0.765410446803421D+02 0.000000000000000D+00 0.000000000000000D+00 0.765410446803421D+02
 0.642038931777812D+02 0.000000000000000D+00 0.000000000000000D+00 -.642038931777812D+02
 0.394980261821460D+02 0.293544569872132D+02 0.941602949854607D+01 0.246930823461521D+02
 0.536481796039259D+02 -.441180141618786D+02 -.224919117167956D+02 -.206359373073102D+02
 0.225226979021652D+02 0.206835703897063D+02 -.793734280852598D+01 -.405714503884189D+01
 0.250760341698863D+02 -.592001321504091D+01 0.210132250267755D+02 0.123371515025610D+02
0.960366252174D-03 0.000000000000D+00 0.000000000000D+00 0.958756441980D-03 0.397795423517D-04  6 21 1 -13 13 1 21 4 0.71536179D-02 0.16259354D-01 0.38647184D+04 0.41061013D+03 0.33065592D+04 0.13866185D+01  1  2  1  2  6  2        1 0.174471870187D+03
  </mgrwgt>
  </event>
  <event npLO=' -1 ' npNLO=' 1 '>
  6     66 -.11644275E+02 0.10848856E+02 0.75467711E-02 0.13535844E+00
       21 -1    0    0  501  502 0.00000000E+00 0.00000000E+00 0.22409537E+02 0.22409537E+02 0.00000000E+00 0.0000E+00 0.9000E+01
        1 -1    0    0  502    0 0.00000000E+00 0.00000000E+00 -.17507032E+03 0.17507032E+03 0.00000000E+00 0.0000E+00 0.9000E+01
       23  2    1    2    0    0 -.10143289E+02 0.38485535E+01 -.15983932E+03 0.18447105E+03 0.91450874E+02 0.0000E+00 0.0000E+00
      -11  1    3    3    0    0 0.29261681E+02 0.71983045E+01 -.13748728E+02 0.33122335E+02 0.00000000E+00 0.0000E+00 0.9000E+01
       11  1    3    3    0    0 -.39404969E+02 -.33497510E+01 -.14609060E+03 0.15134872E+03 0.00000000E+00 0.0000E+00 0.9000E+01
        1  1    1    2  501    0 0.10143289E+02 -.38485535E+01 0.71785370E+01 0.13008807E+02 0.00000000E+00 0.0000E+00 0.9000E+01
#aMCatNLO 1  0  0  1  1 0.28939918D+02 0.00000000D+00  -5  6  0 0.00000000D+00 0.00000000D+00 0.00000000D+00 0.00000000D+00 0.00000000D+00
  <mgrwgt>
 -.3326707174D+03   14    2    0
 0.626358113413886D+02 0.000000000000000D+00 0.000000000000000D+00 0.626358113413886D+02
 0.626358113413886D+02 0.000000000000000D+00 0.000000000000000D+00 -.626358113413886D+02
 0.354597657175516D+02 0.292616806699737D+02 0.719830447837240D+01 0.186904639254562D+02
 0.605565598462852D+02 -.394049694965800D+02 -.334975098659148D+01 -.458598352343111D+02
 0.292552971189404D+02 0.101432888266063D+02 -.384855349178092D+01 0.271693713088549D+02
 0.000000000000000D+00 0.000000000000000D+00 0.000000000000000D+00 0.000000000000000D+00
 0.142790710423455D+03 0.000000000000000D+00 0.000000000000000D+00 0.142790710423455D+03
 0.707240901570513D+02 0.000000000000000D+00 0.000000000000000D+00 -.707240901570513D+02
 0.291211553940570D+02 0.223316341975558D+02 0.797734454191907D-01 0.186904639254562D+02
 0.729104371763568D+02 -.537270397919619D+02 -.180613553401251D+02 -.458598352343111D+02
 0.293128191691820D+02 0.385846413391995D+01 -.103043138953542D+02 0.271693713088549D+02
 0.821703888409100D+02 0.275369414604861D+02 0.282858957900601D+02 0.720666202664032D+02
0.564348144497D-03 0.000000000000D+00 0.000000000000D+00 0.117914260779D-01 0.000000000000D+00  6 21 1 -11 11 1 21 2 0.34476211D-02 0.26933896D-01 0.16212705D+04 0.11769767D+03 0.26492115D+04 0.14820831D+01  1  2  2  1  6  1       21 0.100628717325D+03
0.874620251892D-04 0.273989522020D-04 0.124326127495D-05 0.117914260779D-01 0.000000000000D+00  6 21 1 -11 11 1 21 4 0.34476211D-02 0.26933896D-01 0.16212705D+04 0.11769767D+03 0.26492115D+04 0.14820831D+01  1  2  3  1  6  1       21 0.634868903527D+01
0.377361432088D-04 0.000000000000D+00 0.000000000000D+00 0.117914260779D-01 0.000000000000D+00  6 21 1 -11 11 1 21 4 0.34476211D-02 0.26933896D-01 0.16212705D+04 0.11769767D+03 0.26492115D+04 0.14820831D+01  1  2 15  1  6  1       21 0.147801024040D+02
-.381159825390D-02 0.000000000000D+00 -.869197332039D-03 0.117914260779D-01 0.000000000000D+00  6 21 1 -11 11 1 21 4 0.88278721D-02 0.26933896D-01 0.16212705D+04 0.11769767D+03 0.26492115D+04 0.14820831D+01  1  2  5  1  6  1       21 -.379751333919D+03
-.136503516040D-02 0.000000000000D+00 -.278061631742D-03 0.117914260779D-01 0.000000000000D+00  6 -1 1 -11 11 1 -1 4 0.88278721D-02 0.26933896D-01 0.16212705D+04 0.11769767D+03 0.26492115D+04 0.14820831D+01  1  2  5  4  6  1       21 -.930137896087D+01
-.136503516040D-02 0.000000000000D+00 -.278061631742D-03 0.117914260779D-01 0.000000000000D+00  6 1 1 -11 11 1 1 4 0.88278721D-02 0.26933896D-01 0.16212705D+04 0.11769767D+03 0.26492115D+04 0.14820831D+01  1  2  5  5  6  1       21 -.110199530310D+02
-.136503516040D-02 0.000000000000D+00 -.278061631742D-03 0.117914260779D-01 0.000000000000D+00  6 -2 1 -11 11 1 -2 4 0.88278721D-02 0.26933896D-01 0.16212705D+04 0.11769767D+03 0.26492115D+04 0.14820831D+01  1  2  5  6  6  1       21 -.901462586935D+01
-.136503516040D-02 0.000000000000D+00 -.278061631742D-03 0.117914260779D-01 0.000000000000D+00  6 -4 1 -11 11 1 -4 4 0.88278721D-02 0.26933896D-01 0.16212705D+04 0.11769767D+03 0.26492115D+04 0.14820831D+01  1  2  5  6  6  1       21 -.529747991062D+01
-.136503516040D-02 0.000000000000D+00 -.278061631742D-03 0.117914260779D-01 0.000000000000D+00  6 2 1 -11 11 1 2 4 0.88278721D-02 0.26933896D-01 0.16212705D+04 0.11769767D+03 0.26492115D+04 0.14820831D+01  1  2  5  7  6  1       21 -.122418482415D+02
-.136503516040D-02 0.000000000000D+00 -.278061631742D-03 0.117914260779D-01 0.000000000000D+00  6 4 1 -11 11 1 4 4 0.88278721D-02 0.26933896D-01 0.16212705D+04 0.11769767D+03 0.26492115D+04 0.14820831D+01  1  2  5  7  6  1       21 -.528969010590D+01
-.136503516040D-02 0.000000000000D+00 -.278061631742D-03 0.117914260779D-01 0.000000000000D+00  6 -3 1 -11 11 1 -3 4 0.88278721D-02 0.26933896D-01 0.16212705D+04 0.11769767D+03 0.26492115D+04 0.14820831D+01  1  2  5  8  6  1       21 -.787604105869D+01
-.136503516040D-02 0.000000000000D+00 -.278061631742D-03 0.117914260779D-01 0.000000000000D+00  6 -5 1 -11 11 1 -5 4 0.88278721D-02 0.26933896D-01 0.16212705D+04 0.11769767D+03 0.26492115D+04 0.14820831D+01  1  2  5  8  6  1       21 -.337979137126D+01
-.136503516040D-02 0.000000000000D+00 -.278061631742D-03 0.117914260779D-01 0.000000000000D+00  6 3 1 -11 11 1 3 4 0.88278721D-02 0.26933896D-01 0.16212705D+04 0.11769767D+03 0.26492115D+04 0.14820831D+01  1  2  5  9  6  1       21 -.787886191647D+01
-.136503516040D-02 0.000000000000D+00 -.278061631742D-03 0.117914260779D-01 0.000000000000D+00  6 5 1 -11 11 1 5 4 0.88278721D-02 0.26933896D-01 0.16212705D+04 0.11769767D+03 0.26492115D+04 0.14820831D+01  1  2  5  9  6  1       21 -.337722179700D+01
  </mgrwgt>
  </event>
  <event npLO=' -1 ' npNLO=' 1 '>
  6     66 0.11644275E+02 0.68064913E+02 0.75467711E-02 0.12382153E+00
       21 -1    0    0  501  502 0.00000000E+00 0.00000000E+00 0.44708686E+02 0.44708686E+02 0.00000000E+00 0.0000E+00 0.9000E+01
        3 -1    0    0  502    0 -.00000000E+00 -.00000000E+00 -.31861174E+03 0.31861174E+03 0.00000000E+00 0.0000E+00 0.9000E+01
       23  2    1    2    0    0 0.68058598E+02 -.92719959E+00 -.42669926E+02 0.12227771E+03 0.92186131E+02 0.0000E+00 0.0000E+00
      -13  1    3    3    0    0 -.27929171E+01 -.34119554E+02 -.24938563E+01 0.34324389E+02 0.00000000E+00 0.0000E+00 0.9000E+01
       13  1    3    3    0    0 0.70851515E+02 0.33192355E+02 -.40176070E+02 0.87953318E+02 0.00000000E+00 0.0000E+00 0.9000E+01
        3  1    1    2  501    0 -.68058598E+02 0.92719959E+00 -.23123313E+03 0.24104272E+03 0.00000000E+00 0.0000E+00 0.9000E+01
#aMCatNLO 1  0  0  5  1 0.76328104D+01 0.00000000D+00  -5  6  0 0.00000000D+00 0.00000000D+00 0.00000000D+00 0.00000000D+00 0.00000000D+00
  <mgrwgt>
 0.1228405019D+03    8    2    0
 0.119351212697830D+03 0.000000000000000D+00 0.000000000000000D+00 0.119351212697830D+03
 0.119351212697830D+03 -.000000000000000D+00 -.000000000000000D+00 -.119351212697830D+03
 0.493823083619874D+02 -.279291707128658D+01 -.341195544145324D+02 0.355902795710443D+02
 0.877699021293880D+02 0.708515147636557D+02 0.331923548237606D+02 0.397729324635663D+02
 0.101550214904285D+03 -.680585976923691D+02 0.927199590771882D+00 -.753632120346106D+02
 0.000000000000000D+00 0.000000000000000D+00 0.000000000000000D+00 -.000000000000000D+00
 0.119351212697830D+03 0.000000000000000D+00 0.000000000000000D+00 0.119351212697830D+03
 0.119351212697830D+03 -.000000000000000D+00 -.000000000000000D+00 -.119351212697830D+03
 0.490741471076866D+02 -.320716773562740D+01 -.341139108506114D+02 0.351315680825515D+02
 0.868137731209716D+02 0.701169625891891D+02 0.332023620307654D+02 0.389595420448417D+02
 0.916858762033484D+02 -.666400921221959D+02 0.744135249739022D+00 -.629670094561515D+02
 0.111286289636542D+02 -.269702731365784D+00 0.167413570106982D+00 -.111241006712418D+02
0.137294682364D-02 0.000000000000D+00 0.000000000000D+00 0.217237527270D-03 0.000000000000D+00  6 21 3 -13 13 3 21 2 0.68782593D-02 0.49017190D-01 0.81486445D+04 0.46328371D+04 0.83408059D+04 0.12455930D+01  1  2  2  3  6  5        3 0.917477957007D+01
-.180292082971D-03 0.666562028484D-04 0.302460747863D-05 0.217237527270D-03 0.000000000000D+00  6 21 3 -13 13 3 21 4 0.68782593D-02 0.49017190D-01 0.81486445D+04 0.46328371D+04 0.83408059D+04 0.12455930D+01  1  2  3  3  6  5        3 -.225878065661D+01
0.993375589221D-04 0.000000000000D+00 0.000000000000D+00 0.217237527270D-03 0.000000000000D+00  6 21 3 -13 13 3 21 4 0.68782593D-02 0.49017190D-01 0.81486445D+04 0.46328371D+04 0.83408059D+04 0.12455930D+01  1  2 15  3  6  5        3 0.102993008714D+01
0.109290178019D-01 0.000000000000D+00 0.000000000000D+00 0.217865533366D-03 0.000000000000D+00  6 21 3 -13 13 3 21 4 0.68782593D-02 0.49017190D-01 0.79929727D+04 0.44673729D+04 0.81635943D+04 0.12473922D+01  1  2 12  3  6  5        3 0.113867906802D+03
-.117398352309D-02 0.000000000000D+00 0.000000000000D+00 0.217237527270D-03 0.000000000000D+00  6 21 3 -13 13 3 21 4 0.68782593D-02 0.49017190D-01 0.81486445D+04 0.46328371D+04 0.83408059D+04 0.12455930D+01  1  2  4  3  6  5        3 -.121718407958D+02
-.109516860773D-01 0.000000000000D+00 0.000000000000D+00 0.217237527270D-03 0.000000000000D+00  6 21 3 -13 13 3 21 4 0.68782593D-02 0.49017190D-01 0.81486445D+04 0.46328371D+04 0.83408059D+04 0.12455930D+01  1  2  5  3  6  5        3 -.113546891210D+03
0.122171745431D-01 0.000000000000D+00 -.000000000000D+00 0.217237527270D-03 0.000000000000D+00  6 21 3 -13 13 3 21 4 0.68782593D-02 0.49017190D-01 0.81486445D+04 0.46328371D+04 0.83408059D+04 0.12455930D+01  1  2  6  3  6  5        3 0.126667453664D+03
0.748108731518D-05 0.000000000000D+00 0.000000000000D+00 0.217237527270D-03 0.181742850103D-01  6 21 3 -13 13 3 21 4 0.68782593D-02 0.49017190D-01 0.79929727D+04 0.44673729D+04 0.81635943D+04 0.12473922D+01  1  2 11  3  6  5        3 0.779444016489D-01
  </mgrwgt>
  </event>
  <event npLO=' -1 ' npNLO=' 1 '>
  7     66 0.11644275E+02 0.70794110E+01 0.75467711E-02 0.17189428E+00
       21 -1    0    0  501  502 0.00000000E+00 0.00000000E+00 0.43388046E+02 0.43388046E+02 0.00000000E+00 0.0000E+00 0.9000E+01
        1 -1    0    0  502    0 -.00000000E+00 -.00000000E+00 -.74832238E+02 0.74832238E+02 0.00000000E+00 0.0000E+00 0.9000E+01
       23  2    1    2    0    0 -.14287798E+02 -.36058223E+01 -.26929359E+02 0.96757348E+02 0.91758655E+02 0.0000E+00 0.0000E+00
      -13  1    3    3    0    0 -.96473644E+01 -.26468541E+02 0.26362563E+02 0.38582898E+02 0.00000000E+00 0.0000E+00 0.9000E+01
       13  1    3    3    0    0 -.46404339E+01 0.22862719E+02 -.53291923E+02 0.58174449E+02 0.00000000E+00 0.0000E+00 0.9000E+01
        1  1    1    2  503    0 0.36629566E+01 0.83007335E+01 -.37639873E+01 0.98227811E+01 0.00000000E+00 0.0000E+00 0.9000E+01
       21  1    1    2  501  503 0.10624842E+02 -.46949112E+01 -.75084487E+00 0.11640155E+02 0.00000000E+00 0.0000E+00 0.9000E+01
#aMCatNLO 2  0  0  5  1 0.74061370D+01 0.00000000D+00  -5  6  0 0.00000000D+00 0.00000000D+00 0.00000000D+00 0.00000000D+00 0.00000000D+00
  <mgrwgt>
 0.3921374562D+03    2    2    0
 0.569809143941748D+02 0.000000000000000D+00 0.000000000000000D+00 0.569809143941748D+02
 0.569809143941748D+02 -.000000000000000D+00 -.000000000000000D+00 -.569809143941748D+02
 0.480818868751335D+02 -.122377531239265D+02 -.271222795772923D+02 0.377688654116344D+02
 0.458396894971139D+02 -.712499365166296D+01 0.222356887114630D+02 -.394472527076664D+02
 0.200402524161022D+02 0.193627467755895D+02 0.488659086582937D+01 0.167838729603201D+01
 0.000000000000000D+00 0.000000000000000D+00 -.000000000000000D+00 0.000000000000000D+00
 0.569809143941748D+02 0.000000000000000D+00 0.000000000000000D+00 0.569809143941748D+02
 0.569809143941748D+02 -.000000000000000D+00 -.000000000000000D+00 -.569809143941748D+02
 0.472985626650312D+02 -.964736439985045D+01 -.264685412402308D+02 0.379934035712593D+02
 0.456440420413301D+02 -.464043389380825D+01 0.228627189132754D+02 -.392318879362243D+02
 0.915127854328372D+01 0.366295664732699D+01 0.830073352725848D+01 -.119434939863304D+01
 0.118679455387046D+02 0.106248416463317D+02 -.469491120030303D+01 0.243283376359807D+01
-.334270228665D-03 0.000000000000D+00 0.000000000000D+00 0.167523753489D-02 0.000000000000D+00  6 21 1 -13 13 1 21 4 0.66750840D-02 0.11512652D-01 0.13028385D+04 0.13641339D+03 0.27132957D+04 0.14697235D+01  1  2 13  3  6  5        1 -.130707209014D+03
0.133712139598D-02 0.000000000000D+00 0.000000000000D+00 0.149548131096D-02 0.426551027491D-03  6 21 1 -13 13 1 21 4 0.66750840D-02 0.11512652D-01 0.13028385D+04 0.13641339D+03 0.27132957D+04 0.14697235D+01  1  2  1  3  6  5        1 0.522844665166D+03
  </mgrwgt>
  </event>
  <event npLO=' -1 ' npNLO=' 1 '>
  7     66 -.11644275E+02 0.51132922E+02 0.75467711E-02 0.12539710E+00
       21 -1    0    0  503  502 0.00000000E+00 0.00000000E+00 0.16588575E+02 0.16588575E+02 0.00000000E+00 0.0000E+00 0.9000E+01
        1 -1    0    0  502    0 0.00000000E+00 0.00000000E+00 -.10656217E+04 0.10656217E+04 0.00000000E+00 0.0000E+00 0.9000E+01
       23  2    1    2    0    0 0.20812105E+02 0.33454293E+02 -.45842376E+03 0.46919295E+03 0.91855027E+02 0.0000E+00 0.0000E+00
      -13  1    3    3    0    0 0.51300645E+02 -.34875337E+01 -.21093180E+03 0.21710860E+03 0.00000000E+00 0.0000E+00 0.9000E+01
       13  1    3    3    0    0 -.30488540E+02 0.36941826E+02 -.24749196E+03 0.25208435E+03 0.00000000E+00 0.0000E+00 0.9000E+01
        1  1    1    2  501    0 -.72622971E+02 -.26411643E+02 -.51690669E+03 0.52265112E+03 0.00000000E+00 0.0000E+00 0.9000E+01
       21  1    1    2  503  501 0.51810866E+02 -.70426496E+01 -.73702630E+02 0.90366158E+02 0.00000000E+00 0.0000E+00 0.9000E+01
#aMCatNLO 2  0  0  1  5 0.56151645D+02 0.00000000D+00  -5  6  0 0.00000000D+00 0.00000000D+00 0.00000000D+00 0.00000000D+00 0.00000000D+00
  <mgrwgt>
 -.4071534840D+02    3    2    0
 0.862426987672991D+02 0.000000000000000D+00 0.000000000000000D+00 0.862426987672991D+02
 0.862426987672991D+02 0.000000000000000D+00 0.000000000000000D+00 -.862426987672991D+02
 0.712649366759125D+02 0.696003299177452D+02 -.597500934671405D+01 0.140990970657526D+02
 0.394359078400210D+02 -.176528713561796D+02 0.351970741946012D+02 0.217552940420044D+01
 0.617845530186648D+02 -.519474585615656D+02 -.292220648478872D+02 -.162746264699530D+02
 0.000000000000000D+00 0.000000000000000D+00 -.000000000000000D+00 0.000000000000000D+00
 0.181054511831843D+03 0.000000000000000D+00 0.000000000000000D+00 0.181054511831843D+03
 0.976343785713350D+02 0.000000000000000D+00 0.000000000000000D+00 -.976343785713350D+02
 0.533170105010932D+02 0.513006450202452D+02 -.348753368599563D+01 0.140990970657526D+02
 0.479477062423660D+02 -.304885400798386D+02 0.369418262883112D+02 0.217552940420044D+01
 0.789717311793254D+02 -.726229713989633D+02 -.264116429611735D+02 -.162746264699530D+02
 0.984524424803930D+02 0.518108664585566D+02 -.704264964114211D+01 0.834201332605075D+02
-.370466325657D-02 0.000000000000D+00 0.000000000000D+00 0.330696028583D-03 0.000000000000D+00  6 21 1 -13 13 1 21 4 0.28891903D-02 0.14481357D+00 0.13096662D+05 0.38141531D+04 0.74343456D+04 0.12553033D+01  1  2 13  1  6  1       21 -.112939353664D+03
-.370466325657D-02 0.000000000000D+00 0.000000000000D+00 0.330696028583D-03 0.000000000000D+00  6 21 1 -13 13 1 21 4 0.28891903D-02 0.14481357D+00 0.13096662D+05 0.38141531D+04 0.74343456D+04 0.12553033D+01  1  2 13  1  6  1       21 -.112939353664D+03
0.618247607539D-02 0.000000000000D+00 0.000000000000D+00 0.332599505773D-03 0.587529393678D-05  6 21 1 -13 13 1 21 4 0.25520885D-02 0.16394179D+00 0.13096662D+05 0.38141531D+04 0.74343456D+04 0.12553033D+01  1  2  1  1  6  1       21 0.185163358924D+03
  </mgrwgt>
  </event>
  <event npLO=' -1 ' npNLO=' 1 '>
  7     66 0.11644275E+02 0.27922877E+02 0.75467711E-02 0.13882255E+00
       21 -1    0    0  501  502 0.00000000E+00 0.00000000E+00 0.30769916E+01 0.30769916E+01 0.00000000E+00 0.0000E+00 0.9000E+01
        1 -1    0    0  502    0 -.00000000E+00 -.00000000E+00 -.15368215E+04 0.15368215E+04 0.00000000E+00 0.0000E+00 0.9000E+01
       23  2    1    2    0    0 -.13745352E+02 -.28677699E+02 -.92338571E+03 0.92859718E+03 0.92952728E+02 0.0000E+00 0.0000E+00
      -11  1    3    3    0    0 0.10542263E+01 -.13790501E+02 -.88276219E+03 0.88287053E+03 0.00000000E+00 0.0000E+00 0.9000E+01
       11  1    3    3    0    0 -.14799578E+02 -.14887198E+02 -.40623520E+02 0.45726650E+02 0.00000000E+00 0.0000E+00 0.9000E+01
        1  1    1    2  503    0 0.78628083E+01 0.59449777E+01 -.13264780E+03 0.13301356E+03 0.00000000E+00 0.0000E+00 0.9000E+01
       21  1    1    2  501  503 0.58825433E+01 0.22732722E+02 -.47771101E+03 0.47828777E+03 0.00000000E+00 0.0000E+00 0.9000E+01
#aMCatNLO 2  0  0  5  1 0.52229518D+01 0.00000000D+00  -5  6  0 0.00000000D+00 0.00000000D+00 0.00000000D+00 0.00000000D+00 0.00000000D+00
  <mgrwgt>
 0.4601671976D+02    2    2    0
 0.687661752109027D+02 0.000000000000000D+00 0.000000000000000D+00 0.687661752109027D+02
 0.687661752109027D+02 -.000000000000000D+00 -.000000000000000D+00 -.687661752109027D+02
 0.406154774492904D+02 0.838339626723674D+00 -.142409176889620D+02 -.380277590515177D+02
 0.595622515221682D+02 -.151141843574051D+02 -.155435792144849D+02 0.554763046967211D+02
 0.373546214503468D+02 0.142758447306815D+02 0.297844969034470D+02 -.174485456452033D+02
 0.000000000000000D+00 0.000000000000000D+00 0.000000000000000D+00 -.000000000000000D+00
 0.687661752109027D+02 0.000000000000000D+00 0.000000000000000D+00 0.687661752109027D+02
 0.687661752109027D+02 -.000000000000000D+00 -.000000000000000D+00 -.687661752109027D+02
 0.407128708968239D+02 0.105422629345806D+01 -.137905012072651D+02 -.382916249333461D+02
 0.589555792838919D+02 -.147995779506400D+02 -.148871981929149D+02 0.550917793427211D+02
 0.100306239257264D+02 0.786280833033682D+01 0.594497773647403D+01 -.185658320916909D+01
 0.278332763153633D+02 0.588254332684518D+01 0.227327216637060D+02 -.149435712002059D+02
-.310542644834D-03 0.000000000000D+00 0.000000000000D+00 0.217241848018D-03 0.000000000000D+00  6 21 1 -11 11 1 21 4 0.47338332D-03 0.23643408D+00 0.11614928D+04 0.11514309D+04 0.43675621D+04 0.13207936D+01  1  2 13  3  6  5        1 -.649030288730D+02
0.530719639786D-03 0.000000000000D+00 0.000000000000D+00 0.218298140896D-03 0.186106669268D-04  6 21 1 -11 11 1 21 4 0.47338332D-03 0.23643408D+00 0.11614928D+04 0.11514309D+04 0.43675621D+04 0.13207936D+01  1  2  1  3  6  5        1 0.110919748632D+03
  </mgrwgt>
  </event>
  <event npLO=' -1 ' npNLO=' 1 '>
  6     66 -.11644275E+02 0.14418708E+02 0.75467711E-02 0.13393091E+00
       21 -1    0    0  501  502 0.00000000E+00 0.00000000E+00 0.52990944E+01 0.52990944E+01 0.00000000E+00 0.0000E+00 0.9000E+01
        1 -1    0    0  502    0 0.00000000E+00 0.00000000E+00 -.55800249E+03 0.55800249E+03 0.00000000E+00 0.0000E+00 0.9000E+01
       23  2    1    2    0    0 0.14377926E+02 -.10836928E+01 -.44476013E+03 0.45439958E+03 0.91975546E+02 0.0000E+00 0.0000E+00
      -13  1    3    3    0    0 0.49320038E+02 -.16855048E+02 -.30751847E+03 0.31190410E+03 0.00000000E+00 0.0000E+00 0.9000E+01
       13  1    3    3    0    0 -.34942112E+02 0.15771355E+02 -.13724166E+03 0.14249548E+03 0.00000000E+00 0.0000E+00 0.9000E+01
        1  1    1    2  501    0 -.14377926E+02 0.10836928E+01 -.10794326E+03 0.10890200E+03 0.00000000E+00 0.0000E+00 0.9000E+01
#aMCatNLO 1  0  0  1  5 0.17389763D+02 0.00000000D+00  -5  6  0 0.00000000D+00 0.00000000D+00 0.00000000D+00 0.00000000D+00 0.00000000D+00
  <mgrwgt>
 -.1828329079D+04   14    2    0
 0.543774571749323D+02 0.000000000000000D+00 0.000000000000000D+00 0.543774571749323D+02
 0.543774571749323D+02 0.000000000000000D+00 0.000000000000000D+00 -.543774571749323D+02
 0.526833351491948D+02 0.493200375441870D+02 -.168550479252193D+02 -.767952202424921D+01
 0.405866221269374D+02 -.349421116516920D+02 0.157713550822639D+02 0.133261805430003D+02
 0.154849570737324D+02 -.143779258924950D+02 0.108369284295534D+01 -.564665851875113D+01
 0.000000000000000D+00 0.000000000000000D+00 0.000000000000000D+00 0.000000000000000D+00
 0.823245433474106D+03 0.000000000000000D+00 0.000000000000000D+00 0.823245433474106D+03
 0.588203309476543D+02 0.000000000000000D+00 0.000000000000000D+00 -.588203309476543D+02
 0.518752381032676D+02 0.390354965831397D+02 -.332910690164414D+02 -.767952202424921D+01
 0.454609556541296D+02 -.434058828256875D+02 0.224515862352560D+01 0.133261805430003D+02
 0.191641371007814D+02 -.177860637162634D+02 -.436295036313525D+01 -.564665851875113D+01
 0.765565433563582D+03 0.221564499588111D+02 0.354088607560510D+02 0.764425102526452D+03
0.376343860082D-04 0.000000000000D+00 0.000000000000D+00 0.684326815140D-03 0.000000000000D+00  6 21 1 -13 13 1 21 2 0.81524529D-03 0.85846537D-01 0.27497344D+04 0.20789935D+03 0.28900080D+04 0.14361396D+01  1  2  2  1  6  1       21 0.126158842453D+02
0.898884250204D-07 0.182713942350D-05 0.829087065968D-07 0.684326815140D-03 0.000000000000D+00  6 21 1 -13 13 1 21 4 0.81524529D-03 0.85846537D-01 0.27497344D+04 0.20789935D+03 0.28900080D+04 0.14361396D+01  1  2  3  1  6  1       21 -.319703510378D+01
0.265052963402D-05 0.000000000000D+00 0.000000000000D+00 0.684326815140D-03 0.000000000000D+00  6 21 1 -13 13 1 21 4 0.81524529D-03 0.85846537D-01 0.27497344D+04 0.20789935D+03 0.28900080D+04 0.14361396D+01  1  2 15  1  6  1       21 0.183256279146D+01
-.150601831758D+00 0.000000000000D+00 -.230761875367D-02 0.684326815140D-03 0.000000000000D+00  6 21 1 -13 13 1 21 4 0.13201027D-01 0.85846537D-01 0.27497344D+04 0.20789935D+03 0.28900080D+04 0.14361396D+01  1  2  5  1  6  1       21 -.145437828527D+04
-.666521358033D-01 0.000000000000D+00 -.101938862654D-02 0.684326815140D-03 0.000000000000D+00  6 -1 1 -13 13 1 -1 4 0.13201027D-01 0.85846537D-01 0.27497344D+04 0.20789935D+03 0.28900080D+04 0.14361396D+01  1  2  5  4  6  1       21 -.482301450874D+02
-.666521358033D-01 0.000000000000D+00 -.101938862654D-02 0.684326815140D-03 0.000000000000D+00  6 1 1 -13 13 1 1 4 0.13201027D-01 0.85846537D-01 0.27497344D+04 0.20789935D+03 0.28900080D+04 0.14361396D+01  1  2  5  5  6  1       21 -.609268201056D+02
-.666521358033D-01 0.000000000000D+00 -.101938862654D-02 0.684326815140D-03 0.000000000000D+00  6 -2 1 -13 13 1 -2 4 0.13201027D-01 0.85846537D-01 0.27497344D+04 0.20789935D+03 0.28900080D+04 0.14361396D+01  1  2  5  6  6  1       21 -.457969948132D+02
-.666521358033D-01 0.000000000000D+00 -.101938862654D-02 0.684326815140D-03 0.000000000000D+00  6 -4 1 -13 13 1 -4 4 0.13201027D-01 0.85846537D-01 0.27497344D+04 0.20789935D+03 0.28900080D+04 0.14361396D+01  1  2  5  6  6  1       21 -.251762851470D+02
-.666521358033D-01 0.000000000000D+00 -.101938862654D-02 0.684326815140D-03 0.000000000000D+00  6 2 1 -13 13 1 2 4 0.13201027D-01 0.85846537D-01 0.27497344D+04 0.20789935D+03 0.28900080D+04 0.14361396D+01  1  2  5  7  6  1       21 -.701930760655D+02
-.666521358033D-01 0.000000000000D+00 -.101938862654D-02 0.684326815140D-03 0.000000000000D+00  6 4 1 -13 13 1 4 4 0.13201027D-01 0.85846537D-01 0.27497344D+04 0.20789935D+03 0.28900080D+04 0.14361396D+01  1  2  5  7  6  1       21 -.251192061837D+02
-.666521358033D-01 0.000000000000D+00 -.101938862654D-02 0.684326815140D-03 0.000000000000D+00  6 -3 1 -13 13 1 -3 4 0.13201027D-01 0.85846537D-01 0.27497344D+04 0.20789935D+03 0.28900080D+04 0.14361396D+01  1  2  5  8  6  1       21 -.388968344854D+02
-.666521358033D-01 0.000000000000D+00 -.101938862654D-02 0.684326815140D-03 0.000000000000D+00  6 -5 1 -13 13 1 -5 4 0.13201027D-01 0.85846537D-01 0.27497344D+04 0.20789935D+03 0.28900080D+04 0.14361396D+01  1  2  5  8  6  1       21 -.159764728359D+02
-.666521358033D-01 0.000000000000D+00 -.101938862654D-02 0.684326815140D-03 0.000000000000D+00  6 3 1 -13 13 1 3 4 0.13201027D-01 0.85846537D-01 0.27497344D+04 0.20789935D+03 0.28900080D+04 0.14361396D+01  1  2  5  9  6  1       21 -.389288344158D+02
-.666521358033D-01 0.000000000000D+00 -.101938862654D-02 0.684326815140D-03 0.000000000000D+00  6 5 1 -13 13 1 5 4 0.13201027D-01 0.85846537D-01 0.27497344D+04 0.20789935D+03 0.28900080D+04 0.14361396D+01  1  2  5  9  6  1       21 -.159575365452D+02
  </mgrwgt>
  </event>
  <event npLO=' -1 ' npNLO=' 1 '>
  6     66 0.11644275E+02 0.15682943E+02 0.75467711E-02 0.17470161E+00
       21 -1    0    0  501  502 0.00000000E+00 0.00000000E+00 0.77299633E+02 0.77299633E+02 0.00000000E+00 0.0000E+00 0.9000E+01
        1 -1    0    0  502    0 0.00000000E+00 0.00000000E+00 -.41293933E+02 0.41293933E+02 0.00000000E+00 0.0000E+00 0.9000E+01
       23  2    1    2    0    0 0.14919080E+02 -.48348488E+01 0.30009561E+02 0.10180344E+03 0.96007352E+02 0.0000E+00 0.0000E+00
      -13  1    3    3    0    0 -.35545239E+02 -.18955197E+02 -.21129526E+01 0.40338915E+02 0.00000000E+00 0.0000E+00 0.9000E+01
       13  1    3    3    0    0 0.50464319E+02 0.14120348E+02 0.32122513E+02 0.61464523E+02 0.00000000E+00 0.0000E+00 0.9000E+01
        1  1    1    2  501    0 -.14919080E+02 0.48348488E+01 0.59961386E+01 0.16790127E+02 0.00000000E+00 0.0000E+00 0.9000E+01
#aMCatNLO 1  0  0  5  1 0.42115079D+01 0.00000000D+00  -5  6  0 0.00000000D+00 0.00000000D+00 0.00000000D+00 0.00000000D+00 0.00000000D+00
  <mgrwgt>
 0.5416138756D+03    8    2    0
 0.564978395181064D+02 0.000000000000000D+00 0.000000000000000D+00 0.564978395181064D+02
 0.564978395181064D+02 -.000000000000000D+00 -.000000000000000D+00 -.564978395181064D+02
 0.430106195981784D+02 -.355452394085643D+02 -.189551969185313D+02 -.150714917439103D+02
 0.542737868617673D+02 0.504643190174979D+02 0.141203481269917D+02 0.141284187080260D+02
 0.157112725762671D+02 -.149190796089337D+02 0.483484879153956D+01 0.943073035884332D+00
 0.000000000000000D+00 0.000000000000000D+00 0.000000000000000D+00 0.000000000000000D+00
 0.564978395181064D+02 0.000000000000000D+00 0.000000000000000D+00 0.564978395181064D+02
 0.564978395181064D+02 -.000000000000000D+00 -.000000000000000D+00 -.564978395181064D+02
 0.437599117395407D+02 -.366635219346585D+02 -.185927934015845D+02 -.150008022560529D+02
 0.531337914943934D+02 0.490800700542375D+02 0.145689437912445D+02 0.142159206120590D+02
 0.116196786995148D+02 -.104339993388763D+02 0.245456996244360D+01 0.448594217258269D+01
 0.448229710276394D+01 -.198254878070275D+01 0.156927964789643D+01 -.370106052858881D+01
0.727516281350D-03 0.000000000000D+00 0.000000000000D+00 0.809030216752D-04 0.000000000000D+00  6 21 1 -13 13 1 21 2 0.11892251D-01 0.63529128D-02 0.29359641D+04 0.24595470D+03 0.31901473D+04 0.14233931D+01  1  2  2  3  6  5        1 0.106326975518D+03
0.138402766448D-04 0.353207218155D-04 0.160272134908D-05 0.809030216752D-04 0.000000000000D+00  6 21 1 -13 13 1 21 4 0.11892251D-01 0.63529128D-02 0.29359641D+04 0.24595470D+03 0.31901473D+04 0.14233931D+01  1  2  3  3  6  5        1 -.217963647253D+02
0.542992766776D-04 0.000000000000D+00 0.000000000000D+00 0.809030216752D-04 0.000000000000D+00  6 21 1 -13 13 1 21 4 0.11892251D-01 0.63529128D-02 0.29359641D+04 0.24595470D+03 0.31901473D+04 0.14233931D+01  1  2 15  3  6  5        1 0.160784619547D+02
0.924419634962D-04 0.000000000000D+00 0.000000000000D+00 0.876641024239D-04 0.000000000000D+00  6 21 1 -13 13 1 21 4 0.11892251D-01 0.63529128D-02 0.27853330D+04 0.11826306D+03 0.28888570D+04 0.14816765D+01  1  2 12  3  6  5        1 0.319106532547D+02
-.152389752602D-02 0.000000000000D+00 0.000000000000D+00 0.809030216752D-04 0.000000000000D+00  6 21 1 -13 13 1 21 4 0.11892251D-01 0.63529128D-02 0.29359641D+04 0.24595470D+03 0.31901473D+04 0.14233931D+01  1  2  4  3  6  5        1 -.451238578007D+03
-.655474793951D-03 0.000000000000D+00 0.000000000000D+00 0.809030216752D-04 0.000000000000D+00  6 21 1 -13 13 1 21 4 0.11892251D-01 0.63529128D-02 0.29359641D+04 0.24595470D+03 0.31901473D+04 0.14233931D+01  1  2  5  3  6  5        1 -.194091471961D+03
0.101294719729D-02 0.000000000000D+00 -.000000000000D+00 0.809030216752D-04 0.000000000000D+00  6 21 1 -13 13 1 21 4 0.11892251D-01 0.63529128D-02 0.29359641D+04 0.24595470D+03 0.31901473D+04 0.14233931D+01  1  2  6  3  6  5        1 0.299941987634D+03
0.218565933263D-02 0.000000000000D+00 0.000000000000D+00 0.809030216752D-04 0.277769294625D-03  6 21 1 -13 13 1 21 4 0.11892251D-01 0.63529128D-02 0.27853330D+04 0.11826306D+03 0.28888570D+04 0.14816765D+01  1  2 11  3  6  5        1 0.754482211959D+03
  </mgrwgt>
  </event>
  <event npLO=' -1 ' npNLO=' 1 '>
  6     66 -.11644275E+02 0.21717632E+02 0.75467711E-02 0.12179722E+00
       21 -1    0    0  501  502 0.00000000E+00 0.00000000E+00 0.24769075E+02 0.24769075E+02 0.00000000E+00 0.0000E+00 0.9000E+01
        1 -1    0    0  502    0 0.00000000E+00 0.00000000E+00 -.56361108E+03 0.56361108E+03 0.00000000E+00 0.0000E+00 0.9000E+01
       23  2    1    2    0    0 -.19100778E+02 -.10335173E+02 -.55402045E+03 0.56188410E+03 0.91123127E+02 0.0000E+00 0.0000E+00
      -11  1    3    3    0    0 -.27270069E+02 0.22210177E+02 -.47139308E+03 0.47270327E+03 0.00000000E+00 0.0000E+00 0.9000E+01
       11  1    3    3    0    0 0.81692907E+01 -.32545350E+02 -.82627373E+02 0.89180827E+02 0.00000000E+00 0.0000E+00 0.9000E+01
        1  1    1    2  501    0 0.19100778E+02 0.10335173E+02 0.15178449E+02 0.26496053E+02 0.00000000E+00 0.0000E+00 0.9000E+01
#aMCatNLO 1  0  0  1  2 0.23034953D+02 0.00000000D+00  -5  6  0 0.00000000D+00 0.00000000D+00 0.00000000D+00 0.00000000D+00 0.00000000D+00
  <mgrwgt>
 -.5791570285D+03   14    2    0
 0.118152972124157D+03 0.000000000000000D+00 0.000000000000000D+00 0.118152972124157D+03
 0.118152972124157D+03 0.000000000000000D+00 0.000000000000000D+00 -.118152972124157D+03
 0.102083053549787D+03 -.272700692296962D+02 0.222101772281724D+02 -.958331945296071D+02
 0.336391427951453D+02 0.816929074695840D+01 -.325453503260777D+02 -.237797999081383D+01
 0.100583747903381D+03 0.191007784827378D+02 0.103351730979053D+02 0.982111745204209D+02
 0.000000000000000D+00 0.000000000000000D+00 -.000000000000000D+00 0.000000000000000D+00
 0.458364048634613D+03 0.000000000000000D+00 0.000000000000000D+00 0.458364048634613D+03
 0.128328328599164D+03 0.000000000000000D+00 0.000000000000000D+00 -.128328328599164D+03
 0.115304643336947D+03 -.314351461685392D+02 0.558837291765113D+02 -.958331945296071D+02
 0.246638334455583D+02 0.705222485370044D+01 -.235141662834636D+02 -.237797999081383D+01
 0.108138435450297D+03 0.151017299396901D+02 0.426664291192284D+02 0.982111745204209D+02
 0.338585465000975D+03 0.928119137514868D+01 -.750359920122761D+02 0.330035720035450D+03
0.209247923659D-02 0.000000000000D+00 0.000000000000D+00 0.166283553813D-01 0.000000000000D+00  6 21 1 -11 11 1 21 2 0.38106269D-02 0.86709397D-01 0.20449795D+04 0.47165554D+03 0.33288877D+04 0.13771685D+01  1  2  2  1  6  1       21 0.651637839960D+02
0.203285950700D-03 0.101589309979D-03 0.460974033292D-05 0.166283553813D-01 0.000000000000D+00  6 21 1 -11 11 1 21 4 0.38106269D-02 0.86709397D-01 0.20449795D+04 0.47165554D+03 0.33288877D+04 0.13771685D+01  1  2  3  1  6  1       21 0.333775514713D+01
0.166103006970D-03 0.000000000000D+00 0.000000000000D+00 0.166283553813D-01 0.000000000000D+00  6 21 1 -11 11 1 21 4 0.38106269D-02 0.86709397D-01 0.20449795D+04 0.47165554D+03 0.33288877D+04 0.13771685D+01  1  2 15  1  6  1       21 0.981062710011D+01
-.850203588234D-01 0.000000000000D+00 -.787758778498D-02 0.166283553813D-01 0.000000000000D+00  6 21 1 -11 11 1 21 4 0.15879250D-01 0.86709397D-01 0.20449795D+04 0.47165554D+03 0.33288877D+04 0.13771685D+01  1  2  5  1  6  1       21 -.523650494784D+03
-.347987322179D-01 0.000000000000D+00 -.313993236807D-02 0.166283553813D-01 0.000000000000D+00  6 -1 1 -11 11 1 -1 4 0.15879250D-01 0.86709397D-01 0.20449795D+04 0.47165554D+03 0.33288877D+04 0.13771685D+01  1  2  5  4  6  1       21 -.167283413162D+02
-.347987322179D-01 0.000000000000D+00 -.313993236807D-02 0.166283553813D-01 0.000000000000D+00  6 1 1 -11 11 1 1 4 0.15879250D-01 0.86709397D-01 0.20449795D+04 0.47165554D+03 0.33288877D+04 0.13771685D+01  1  2  5  5  6  1       21 -.219616140050D+02
-.347987322179D-01 0.000000000000D+00 -.313993236807D-02 0.166283553813D-01 0.000000000000D+00  6 -2 1 -11 11 1 -2 4 0.15879250D-01 0.86709397D-01 0.20449795D+04 0.47165554D+03 0.33288877D+04 0.13771685D+01  1  2  5  6  6  1       21 -.157133268081D+02
-.347987322179D-01 0.000000000000D+00 -.313993236807D-02 0.166283553813D-01 0.000000000000D+00  6 -4 1 -11 11 1 -4 4 0.15879250D-01 0.86709397D-01 0.20449795D+04 0.47165554D+03 0.33288877D+04 0.13771685D+01  1  2  5  6  6  1       21 -.836306100110D+01
-.347987322179D-01 0.000000000000D+00 -.313993236807D-02 0.166283553813D-01 0.000000000000D+00  6 2 1 -11 11 1 2 4 0.15879250D-01 0.86709397D-01 0.20449795D+04 0.47165554D+03 0.33288877D+04 0.13771685D+01  1  2  5  7  6  1       21 -.258035145545D+02
-.347987322179D-01 0.000000000000D+00 -.313993236807D-02 0.166283553813D-01 0.000000000000D+00  6 4 1 -11 11 1 4 4 0.15879250D-01 0.86709397D-01 0.20449795D+04 0.47165554D+03 0.33288877D+04 0.13771685D+01  1  2  5  7  6  1       21 -.834045886600D+01
-.347987322179D-01 0.000000000000D+00 -.313993236807D-02 0.166283553813D-01 0.000000000000D+00  6 -3 1 -11 11 1 -3 4 0.15879250D-01 0.86709397D-01 0.20449795D+04 0.47165554D+03 0.33288877D+04 0.13771685D+01  1  2  5  8  6  1       21 -.131157606185D+02
-.347987322179D-01 0.000000000000D+00 -.313993236807D-02 0.166283553813D-01 0.000000000000D+00  6 -5 1 -11 11 1 -5 4 0.15879250D-01 0.86709397D-01 0.20449795D+04 0.47165554D+03 0.33288877D+04 0.13771685D+01  1  2  5  8  6  1       21 -.533429780906D+01
-.347987322179D-01 0.000000000000D+00 -.313993236807D-02 0.166283553813D-01 0.000000000000D+00  6 3 1 -11 11 1 3 4 0.15879250D-01 0.86709397D-01 0.20449795D+04 0.47165554D+03 0.33288877D+04 0.13771685D+01  1  2  5  9  6  1       21 -.131315921706D+02
-.347987322179D-01 0.000000000000D+00 -.313993236807D-02 0.166283553813D-01 0.000000000000D+00  6 5 1 -11 11 1 5 4 0.15879250D-01 0.86709397D-01 0.20449795D+04 0.47165554D+03 0.33288877D+04 0.13771685D+01  1  2  5  9  6  1       21 -.532673281143D+01
  </mgrwgt>
  </event>
  <event npLO=' -1 ' npNLO=' 1 '>
  6     66 -.11644275E+02 0.14015746E+02 0.75467711E-02 0.16487963E+00
       21 -1    0    0  501  502 0.00000000E+00 0.00000000E+00 0.50032016E+01 0.50032016E+01 0.00000000E+00 0.0000E+00 0.9000E+01
        1 -1    0    0  502    0 -.00000000E+00 -.00000000E+00 -.78034218E+03 0.78034218E+03 0.00000000E+00 0.0000E+00 0.9000E+01
       23  2    1    2    0    0 0.10877600E+02 0.88384926E+01 -.75327544E+03 0.75920651E+03 0.93670630E+02 0.0000E+00 0.0000E+00
      -13  1    3    3    0    0 -.43234533E+01 0.38248850E+02 -.14473272E+03 0.14976391E+03 0.00000000E+00 0.0000E+00 0.9000E+01
       13  1    3    3    0    0 0.15201053E+02 -.29410357E+02 -.60854272E+03 0.60944260E+03 0.00000000E+00 0.0000E+00 0.9000E+01
        1  1    1    2  501    0 -.10877600E+02 -.88384926E+01 -.22063534E+02 0.26138873E+02 0.00000000E+00 0.0000E+00 0.9000E+01
#aMCatNLO 1  0  0  5  1 0.51067973D+00 0.00000000D+00  -5  6  0 0.00000000D+00 0.00000000D+00 0.00000000D+00 0.00000000D+00 0.00000000D+00
  <mgrwgt>
 -.4334580950D+03    8    2    0
 0.624836718853719D+02 0.000000000000000D+00 0.000000000000000D+00 0.624836718853719D+02
 0.624836718853719D+02 -.000000000000000D+00 -.000000000000000D+00 -.624836718853719D+02
 0.432070572365336D+02 -.432345325215567D+01 0.382488496576067D+02 0.196260807826552D+02
 0.543825337064102D+02 0.152010533300003D+02 -.294103570910807D+02 -.431441635190955D+02
 0.273777528278000D+02 -.108776000778447D+02 -.883849256652609D+01 0.235180827364402D+02
 0.000000000000000D+00 0.000000000000000D+00 0.000000000000000D+00 0.000000000000000D+00
 0.624836718853719D+02 0.000000000000000D+00 0.000000000000000D+00 0.624836718853719D+02
 0.624836718853719D+02 -.000000000000000D+00 -.000000000000000D+00 -.624836718853719D+02
 0.432102653686765D+02 -.433227938352067D+01 0.382416780668236D+02 0.196451634558735D+02
 0.543652630273334D+02 0.151899465019861D+02 -.294193818406705D+02 -.431201498305696D+02
 0.251808722102304D+02 -.104641588063451D+02 -.812376273736209D+01 0.214145320922636D+02
 0.221094316450345D+01 -.393508312120377D+00 -.698533488790986D+00 0.206045428243245D+01
0.547133839418D-04 0.000000000000D+00 0.000000000000D+00 0.124392678908D-02 0.000000000000D+00  6 21 1 -13 13 1 21 2 0.76972332D-03 0.12005264D+00 0.18324685D+04 0.19644113D+03 0.29555068D+04 0.14405181D+01  1  2  2  3  6  5        1 0.126160984837D+02
0.378983325123D-05 0.265632022724D-05 0.120533809032D-06 0.124392678908D-02 0.000000000000D+00  6 21 1 -13 13 1 21 4 0.76972332D-03 0.12005264D+00 0.18324685D+04 0.19644113D+03 0.29555068D+04 0.14405181D+01  1  2  3  3  6  5        1 -.997290339948D+00
0.408867367586D-05 0.000000000000D+00 0.000000000000D+00 0.124392678908D-02 0.000000000000D+00  6 21 1 -13 13 1 21 4 0.76972332D-03 0.12005264D+00 0.18324685D+04 0.19644113D+03 0.29555068D+04 0.14405181D+01  1  2 15  3  6  5        1 0.195637177758D+01
0.211504363426D-14 0.000000000000D+00 0.000000000000D+00 0.124203613731D-02 0.000000000000D+00  6 21 1 -13 13 1 21 4 0.76972332D-03 0.12005264D+00 0.18337618D+04 0.19923656D+03 0.29607049D+04 0.14394230D+01  1  2 12  3  6  5        1 0.100908783399D-08
-.166473678363D-01 0.000000000000D+00 0.000000000000D+00 0.124392678908D-02 0.000000000000D+00  6 21 1 -13 13 1 21 4 0.76972332D-03 0.12005264D+00 0.18324685D+04 0.19644113D+03 0.29555068D+04 0.14405181D+01  1  2  4  3  6  5        1 -.796552701145D+04
-.571093526771D-02 0.000000000000D+00 0.000000000000D+00 0.124392678908D-02 0.000000000000D+00  6 21 1 -13 13 1 21 4 0.76972332D-03 0.12005264D+00 0.18324685D+04 0.19644113D+03 0.29555068D+04 0.14405181D+01  1  2  5  3  6  5        1 -.273260070798D+04
0.625669536084D-02 0.000000000000D+00 -.000000000000D+00 0.124392678908D-02 0.000000000000D+00  6 21 1 -13 13 1 21 4 0.76972332D-03 0.12005264D+00 0.18324685D+04 0.19644113D+03 0.29555068D+04 0.14405181D+01  1  2  6  3  6  5        1 0.299373909372D+04
0.152113846974D-01 0.000000000000D+00 0.000000000000D+00 0.124392678908D-02 0.128142938730D+00  6 21 1 -13 13 1 21 4 0.76972332D-03 0.12005264D+00 0.18337618D+04 0.19923656D+03 0.29607049D+04 0.14394230D+01  1  2 11  3  6  5        1 0.725735535076D+04
  </mgrwgt>
  </event>
  <event npLO=' -1 ' npNLO=' 1 '>
  6     66 0.11644275E+02 0.12461055E+02 0.75467711E-02 0.16942107E+00
       21 -1    0    0  501  502 0.00000000E+00 0.00000000E+00 0.29384841E+02 0.29384841E+02 0.00000000E+00 0.0000E+00 0.9000E+01
        1 -1    0    0  502    0 0.00000000E+00 0.00000000E+00 -.80481466E+02 0.80481466E+02 0.00000000E+00 0.0000E+00 0.9000E+01
       23  2    1    2    0    0 0.68457664E+01 -.10412174E+02 -.38352692E+02 0.92042566E+02 0.82738305E+02 0.0000E+00 0.0000E+00
      -13  1    3    3    0    0 -.94151342E+01 0.28608618E+02 0.60664169E+01 0.30722942E+02 0.00000000E+00 0.0000E+00 0.9000E+01
       13  1    3    3    0    0 0.16260901E+02 -.39020792E+02 -.44419109E+02 0.61319624E+02 0.00000000E+00 0.0000E+00 0.9000E+01
        1  1    1    2  501    0 -.68457664E+01 0.10412174E+02 -.12743934E+02 0.17823741E+02 0.00000000E+00 0.0000E+00 0.9000E+01
#aMCatNLO 1  0  0  1  5 0.12122743D+00 0.00000000D+00  -5  6  0 0.00000000D+00 0.00000000D+00 0.00000000D+00 0.00000000D+00 0.00000000D+00
  <mgrwgt>
 0.1658434891D+05   27    2    0
 0.486305980805809D+02 0.000000000000000D+00 0.000000000000000D+00 0.486305980805809D+02
 0.486305980805809D+02 0.000000000000000D+00 0.000000000000000D+00 -.486305980805809D+02
 0.378916751487854D+02 -.941513418294960D+01 0.286086179156339D+02 0.229930701485341D+02
 0.459308979752947D+02 0.162609006264911D+02 -.390207917460448D+02 -.179613003745307D+02
 0.134386230370818D+02 -.684576644354146D+01 0.104121738304109D+02 -.503176977400337D+01
 0.000000000000000D+00 0.000000000000000D+00 0.000000000000000D+00 0.000000000000000D+00
 0.487577341149785D+02 0.000000000000000D+00 0.000000000000000D+00 0.487577341149785D+02
 0.486548936601225D+02 0.000000000000000D+00 0.000000000000000D+00 -.486548936601225D+02
 0.378959670080891D+02 -.945759936806533D+01 0.286002946630964D+02 0.229930701485341D+02
 0.459212761558342D+02 0.162094341938807D+02 -.390308792592547D+02 -.179613003745307D+02
 0.134440164149639D+02 -.686082927210087D+01 0.104092214889649D+02 -.503176977400337D+01
 0.151368196213796D+00 0.108994446285456D+00 0.213631071933559D-01 0.102840454856007D+00
0.529302527291D-02 0.000000000000D+00 0.000000000000D+00 0.210222814618D-04 0.000000000000D+00  6 21 1 -13 13 1 21 2 0.45207447D-02 0.12381764D-01 0.17999868D+04 0.15527804D+03 0.23103630D+04 0.14591402D+01  1  2  2  1  6  1       21 0.156221955297D+04
0.149728880064D-04 0.256974968148D-03 0.116605563663D-04 0.210222814618D-04 0.000000000000D+00  6 21 1 -13 13 1 21 4 0.45207447D-02 0.12381764D-01 0.17999868D+04 0.15527804D+03 0.23103630D+04 0.14591402D+01  1  2  3  1  6  1       21 -.384443120156D+03
0.372898732740D-03 0.000000000000D+00 0.000000000000D+00 0.210222814618D-04 0.000000000000D+00  6 21 1 -13 13 1 21 4 0.45207447D-02 0.12381764D-01 0.17999868D+04 0.15527804D+03 0.23103630D+04 0.14591402D+01  1  2 15  1  6  1       21 0.234327397352D+03
-.781198974517D+00 0.000000000000D+00 0.000000000000D+00 0.210222814618D-04 0.000000000000D+00  6 21 1 -13 13 1 21 4 0.45207447D-02 0.12381764D-01 0.17999868D+04 0.15527804D+03 0.23103630D+04 0.14591402D+01  1  2  4  1  6  1       21 -.490900897323D+06
-.577805525278D+01 0.000000000000D+00 -.421680022138D+00 0.210222814618D-04 0.000000000000D+00  6 21 1 -13 13 1 21 4 0.45347655D-02 0.12381764D-01 0.17999868D+04 0.15527804D+03 0.23103630D+04 0.14591402D+01  1  2  5  1  6  1       21 -.367939204772D+07
0.577924383026D+01 0.000000000000D+00 0.421671935178D+00 0.210222814618D-04 0.000000000000D+00  6 21 1 -13 13 1 21 4 0.45207447D-02 0.12381764D-01 0.17999868D+04 0.15527804D+03 0.23103630D+04 0.14591402D+01  1  2  6  1  6  1       21 0.369778801765D+07
0.780669533497D+00 0.000000000000D+00 0.000000000000D+00 0.210222814618D-04 0.381930700222D-01  6 21 1 -13 13 1 21 4 0.45325634D-02 0.12387950D-01 0.18047345D+04 0.15533223D+03 0.23104831D+04 0.14591120D+01  1  2 11  1  6  1       21 0.488247220738D+06
-.370769122408D-02 0.000000000000D+00 -.291523025242D-03 0.210222814618D-04 0.000000000000D+00  6 -1 1 -13 13 1 -1 4 0.45347655D-02 0.12381764D-01 0.17999868D+04 0.15527804D+03 0.23103630D+04 0.14591402D+01  1  2  5  4  6  1       21 -.146474562830D+03
0.925975851186D-02 0.000000000000D+00 0.000000000000D+00 0.210222814618D-04 0.431534818008D-03  6 -1 1 -13 13 1 -1 4 0.45325634D-02 0.12387950D-01 0.18047345D+04 0.15533223D+03 0.23104831D+04 0.14591120D+01  1  2 11  4  6  1       21 0.358760961774D+03
-.370769122408D-02 0.000000000000D+00 -.291523025242D-03 0.210222814618D-04 0.000000000000D+00  6 1 1 -13 13 1 1 4 0.45347655D-02 0.12381764D-01 0.17999868D+04 0.15527804D+03 0.23103630D+04 0.14591402D+01  1  2  5  5  6  1       21 -.162256093444D+03
0.120764321109D-02 0.000000000000D+00 0.000000000000D+00 0.210222814618D-04 0.182212456427D-04  6 1 1 -13 13 1 1 4 0.45325634D-02 0.12387950D-01 0.18047345D+04 0.15533223D+03 0.23104831D+04 0.14591120D+01  1  2 11  5  6  1       21 0.518282604432D+02
-.370769122408D-02 0.000000000000D+00 -.291523025242D-03 0.210222814618D-04 0.000000000000D+00  6 -2 1 -13 13 1 -2 4 0.45347655D-02 0.12381764D-01 0.17999868D+04 0.15527804D+03 0.23103630D+04 0.14591402D+01  1  2  5  6  6  1       21 -.144954831157D+03
-.370769122408D-02 0.000000000000D+00 -.291523025242D-03 0.210222814618D-04 0.000000000000D+00  6 -4 1 -13 13 1 -4 4 0.45347655D-02 0.12381764D-01 0.17999868D+04 0.15527804D+03 0.23103630D+04 0.14591402D+01  1  2  5  6  6  1       21 -.930982238162D+02
0.900457493055D-03 0.000000000000D+00 0.000000000000D+00 0.210222814618D-04 0.250724040658D-04  6 -2 1 -13 13 1 -2 4 0.45325634D-02 0.12387950D-01 0.18047345D+04 0.15533223D+03 0.23104831D+04 0.14591120D+01  1  2 11  6  6  1       21 0.345257834849D+02
0.900457493055D-03 0.000000000000D+00 0.000000000000D+00 0.210222814618D-04 0.250724040658D-04  6 -4 1 -13 13 1 -4 4 0.45325634D-02 0.12387950D-01 0.18047345D+04 0.15533223D+03 0.23104831D+04 0.14591120D+01  1  2 11  6  6  1       21 0.221758292093D+02
-.370769122408D-02 0.000000000000D+00 -.291523025242D-03 0.210222814618D-04 0.000000000000D+00  6 2 1 -13 13 1 2 4 0.45347655D-02 0.12381764D-01 0.17999868D+04 0.15527804D+03 0.23103630D+04 0.14591402D+01  1  2  5  7  6  1       21 -.172969651325D+03
-.370769122408D-02 0.000000000000D+00 -.291523025242D-03 0.210222814618D-04 0.000000000000D+00  6 4 1 -13 13 1 4 4 0.45347655D-02 0.12381764D-01 0.17999868D+04 0.15527804D+03 0.23103630D+04 0.14591402D+01  1  2  5  7  6  1       21 -.930436085990D+02
0.901892369860D-03 0.000000000000D+00 0.000000000000D+00 0.210222814618D-04 0.251123568802D-04  6 2 1 -13 13 1 2 4 0.45325634D-02 0.12387950D-01 0.18047345D+04 0.15533223D+03 0.23104831D+04 0.14591120D+01  1  2 11  7  6  1       21 0.412611900323D+02
0.901892369860D-03 0.000000000000D+00 0.000000000000D+00 0.210222814618D-04 0.251123568802D-04  6 4 1 -13 13 1 4 4 0.45325634D-02 0.12387950D-01 0.18047345D+04 0.15533223D+03 0.23104831D+04 0.14591120D+01  1  2 11  7  6  1       21 0.221981469817D+02
-.370769122408D-02 0.000000000000D+00 -.291523025242D-03 0.210222814618D-04 0.000000000000D+00  6 -3 1 -13 13 1 -3 4 0.45347655D-02 0.12381764D-01 0.17999868D+04 0.15527804D+03 0.23103630D+04 0.14591402D+01  1  2  5  8  6  1       21 -.130465380256D+03
-.370769122408D-02 0.000000000000D+00 -.291523025242D-03 0.210222814618D-04 0.000000000000D+00  6 -5 1 -13 13 1 -5 4 0.45347655D-02 0.12381764D-01 0.17999868D+04 0.15527804D+03 0.23103630D+04 0.14591402D+01  1  2  5  8  6  1       21 -.599696832505D+02
0.926100855917D-03 0.000000000000D+00 0.000000000000D+00 0.210222814618D-04 0.257864197304D-04  6 -3 1 -13 13 1 -3 4 0.45325634D-02 0.12387950D-01 0.18047345D+04 0.15533223D+03 0.23104831D+04 0.14591120D+01  1  2 11  8  6  1       21 0.319601944585D+02
0.926100855917D-03 0.000000000000D+00 0.000000000000D+00 0.210222814618D-04 0.257864197304D-04  6 -5 1 -13 13 1 -5 4 0.45325634D-02 0.12387950D-01 0.18047345D+04 0.15533223D+03 0.23104831D+04 0.14591120D+01  1  2 11  8  6  1       21 0.146917240669D+02
-.370769122408D-02 0.000000000000D+00 -.291523025242D-03 0.210222814618D-04 0.000000000000D+00  6 3 1 -13 13 1 3 4 0.45347655D-02 0.12381764D-01 0.17999868D+04 0.15527804D+03 0.23103630D+04 0.14591402D+01  1  2  5  9  6  1       21 -.130321882055D+03
-.370769122408D-02 0.000000000000D+00 -.291523025242D-03 0.210222814618D-04 0.000000000000D+00  6 5 1 -13 13 1 5 4 0.45347655D-02 0.12381764D-01 0.17999868D+04 0.15527804D+03 0.23103630D+04 0.14591402D+01  1  2  5  9  6  1       21 -.599518031956D+02
0.915034660063D-03 0.000000000000D+00 0.000000000000D+00 0.210222814618D-04 0.254782917664D-04  6 3 1 -13 13 1 3 4 0.45325634D-02 0.12387950D-01 0.18047345D+04 0.15533223D+03 0.23104831D+04 0.14591120D+01  1  2 11  9  6  1       21 0.315435284692D+02
0.915034660063D-03 0.000000000000D+00 0.000000000000D+00 0.210222814618D-04 0.254782917664D-04  6 5 1 -13 13 1 5 4 0.45325634D-02 0.12387950D-01 0.18047345D+04 0.15533223D+03 0.23104831D+04 0.14591120D+01  1  2 11  9  6  1       21 0.145118447801D+02
  </mgrwgt>
  </event>
  <event npLO=' -1 ' npNLO=' 1 '>
  6     66 0.11644275E+02 0.11789222E+02 0.75467711E-02 0.17153396E+00
       21 -1    0    0  501  502 0.00000000E+00 0.00000000E+00 0.22017942E+03 0.22017942E+03 0.00000000E+00 0.0000E+00 0.9000E+01
        1 -1    0    0  502    0 0.00000000E+00 0.00000000E+00 -.12015727E+02 0.12015727E+02 0.00000000E+00 0.0000E+00 0.9000E+01
       23  2    1    2    0    0 0.96229964E+00 0.11749882E+02 0.18438686E+03 0.20565606E+03 0.90315625E+02 0.0000E+00 0.0000E+00
      -13  1    3    3    0    0 0.19138620E+02 0.42939735E+02 0.14403555E+03 0.15151352E+03 0.00000000E+00 0.0000E+00 0.9000E+01
       13  1    3    3    0    0 -.18176321E+02 -.31189853E+02 0.40351318E+02 0.54142538E+02 0.00000000E+00 0.0000E+00 0.9000E+01
        1  1    1    2  501    0 -.96229964E+00 -.11749882E+02 0.23776827E+02 0.26539089E+02 0.00000000E+00 0.0000E+00 0.9000E+01
#aMCatNLO 1  0  0  5  1 0.11143290D+03 0.00000000D+00  -5  6  0 0.00000000D+00 0.00000000D+00 0.00000000D+00 0.00000000D+00 0.00000000D+00
  <mgrwgt>
 0.2646695961D+02    1    2    0
 0.514355501522626D+02 0.000000000000000D+00 0.000000000000000D+00 0.514355501522626D+02
 0.514355501522626D+02 -.000000000000000D+00 -.000000000000000D+00 -.514355501522626D+02
 0.505266537739846D+02 0.191386201785367D+02 0.429397352111971D+02 0.185158067404609D+02
 0.405551721851966D+02 -.181763205413177D+02 -.311898527929328D+02 -.184807046755636D+02
 0.117892743453441D+02 -.962299637219031D+00 -.117498824182643D+02 -.351020648972134D-01
 0.000000000000000D+00 -.000000000000000D+00 0.000000000000000D+00 0.000000000000000D+00
 0.514355501522626D+02 0.000000000000000D+00 0.000000000000000D+00 0.514355501522626D+02
 0.514355501522626D+02 -.000000000000000D+00 -.000000000000000D+00 -.514355501522626D+02
 0.493871188647804D+02 0.190324414710705D+02 0.416432707007704D+02 0.185119336309469D+02
 0.414185605481988D+02 -.182634343070973D+02 -.322535303267628D+02 -.184838823480282D+02
 0.648862885006685D+01 -.421111127787551D+00 -.526649675849819D+01 -.376682647127545D+01
 0.557679204147915D+01 -.347896036185688D+00 -.412324361550947D+01 0.373877518835673D+01
0.966809047814D-04 0.000000000000D+00 0.000000000000D+00 0.147536003627D-02 0.000000000000D+00  6 21 1 -13 13 1 21 4 0.33873757D-01 0.18485734D-02 0.22515341D+04 0.13898590D+03 0.26456131D+04 0.14681823D+01  1  2 14  3  6  5        1 0.264669596136D+02
  </mgrwgt>
  </event>
  <event npLO=' -1 ' npNLO=' 1 '>
  6     66 0.11644275E+02 0.15737572E+02 0.75467711E-02 0.12200171E+00
       21 -1    0    0  501  502 0.00000000E+00 0.00000000E+00 0.12918019E+03 0.12918019E+03 0.00000000E+00 0.0000E+00 0.9000E+01
        1 -1    0    0  502    0 0.00000000E+00 0.00000000E+00 -.22420868E+02 0.22420868E+02 0.00000000E+00 0.0000E+00 0.9000E+01
       23  2    1    2    0    0 -.12120679E+02 0.10037944E+02 0.93363810E+02 0.13093440E+03 0.90439725E+02 0.0000E+00 0.0000E+00
      -11  1    3    3    0    0 0.28101400E+02 -.18740781E+01 0.83107348E+02 0.87749827E+02 0.00000000E+00 0.0000E+00 0.9000E+01
       11  1    3    3    0    0 -.40222079E+02 0.11912022E+02 0.10256462E+02 0.43184568E+02 0.00000000E+00 0.0000E+00 0.9000E+01
        1  1    1    2  501    0 0.12120679E+02 -.10037944E+02 0.13395513E+02 0.20666663E+02 0.00000000E+00 0.0000E+00 0.9000E+01
#aMCatNLO 1  0  0  2  1 0.11935113D+02 0.00000000D+00  -5  6  0 0.00000000D+00 0.00000000D+00 0.00000000D+00 0.00000000D+00 0.00000000D+00
  <mgrwgt>
 0.2078517948D+03    3    2    0
 0.538175806991594D+02 0.000000000000000D+00 0.000000000000000D+00 0.538175806991594D+02
 0.538175806991594D+02 0.000000000000000D+00 0.000000000000000D+00 -.538175806991594D+02
 0.411620369672142D+02 0.281014003370235D+02 -.187407809917487D+01 0.300185345689432D+02
 0.506512307827801D+02 -.402220793986269D+02 0.119120224248834D+02 -.283872371042002D+02
 0.158218936483245D+02 0.121206790616034D+02 -.100379443257086D+02 -.163129746474295D+01
 0.000000000000000D+00 -.000000000000000D+00 0.000000000000000D+00 0.000000000000000D+00
 0.253067720110381D+03 0.000000000000000D+00 0.000000000000000D+00 0.253067720110381D+03
 0.740953116451897D+02 0.000000000000000D+00 0.000000000000000D+00 -.740953116451897D+02
 0.564410190133016D+02 0.351545963765005D+02 -.323825657290830D+02 0.300185345689432D+02
 0.474927828017834D+02 -.331297915500660D+02 -.187655562053586D+02 -.283872371042002D+02
 0.284006093502941D+02 0.153163780063975D+02 -.238608894388847D+02 -.163129746474295D+01
 0.194828620590191D+03 -.173411828328320D+02 0.750090113733263D+02 0.178972408465191D+03
0.166504647170D-02 0.000000000000D+00 0.000000000000D+00 0.110682699439D-02 0.000000000000D+00  6 21 1 -11 11 1 21 2 0.19873875D-01 0.34493643D-02 0.18425692D+04 0.24767143D+03 0.28910169D+04 0.14228734D+01  1  2  2  2  6  2        1 0.227052436259D+03
-.340382917156D-04 0.808375630134D-04 0.366810420030D-05 0.110682699439D-02 0.000000000000D+00  6 21 1 -11 11 1 21 4 0.19873875D-01 0.34493643D-02 0.18425692D+04 0.24767143D+03 0.28910169D+04 0.14228734D+01  1  2  3  2  6  2        1 -.537281283758D+02
0.125064088767D-03 0.000000000000D+00 0.000000000000D+00 0.110682699439D-02 0.000000000000D+00  6 21 1 -11 11 1 21 4 0.19873875D-01 0.34493643D-02 0.18425692D+04 0.24767143D+03 0.28910169D+04 0.14228734D+01  1  2 15  2  6  2        1 0.345274869341D+02
  </mgrwgt>
  </event>
  <event npLO=' -1 ' npNLO=' 1 '>
  6     66 0.11644275E+02 0.13615444E+02 0.75467711E-02 0.16616828E+00
       21 -1    0    0  501  502 0.00000000E+00 0.00000000E+00 0.11239100E+03 0.11239100E+03 0.00000000E+00 0.0000E+00 0.9000E+01
        1 -1    0    0  502    0 0.00000000E+00 0.00000000E+00 -.26498733E+02 0.26498733E+02 0.00000000E+00 0.0000E+00 0.9000E+01
       23  2    1    2    0    0 0.13581857E+02 0.95574915E+00 0.47606468E+02 0.98254986E+02 0.84866283E+02 0.0000E+00 0.0000E+00
      -13  1    3    3    0    0 0.78193873E+01 -.33647043E+02 -.51244016E+01 0.34921709E+02 0.00000000E+00 0.0000E+00 0.9000E+01
       13  1    3    3    0    0 0.57624701E+01 0.34602792E+02 0.52730870E+02 0.63333276E+02 0.00000000E+00 0.0000E+00 0.9000E+01
        1  1    1    2  501    0 -.13581857E+02 -.95574915E+00 0.38285795E+02 0.40634744E+02 0.00000000E+00 0.0000E+00 0.9000E+01
#aMCatNLO 1  0  0  5  1 0.11067186D+02 0.00000000D+00  -5  6  0 0.00000000D+00 0.00000000D+00 0.00000000D+00 0.00000000D+00 0.00000000D+00
  <mgrwgt>
 0.2022211114D+03    5    2    0
 0.545730613010191D+02 0.000000000000000D+00 0.000000000000000D+00 0.545730613010191D+02
 0.545730613010191D+02 -.000000000000000D+00 -.000000000000000D+00 -.545730613010191D+02
 0.484709221826366D+02 0.781938731415970D+01 -.336470425127417D+02 -.340024118175774D+02
 0.390959180108836D+02 0.576247014713133D+01 0.346027916642827D+02 0.172606938433945D+02
 0.215792824085181D+02 -.135818574612910D+02 -.955749151541077D+00 0.167417179741829D+02
 0.000000000000000D+00 0.000000000000000D+00 0.000000000000000D+00 -.000000000000000D+00
 0.545730613010191D+02 0.000000000000000D+00 0.000000000000000D+00 0.545730613010191D+02
 0.545730613010191D+02 -.000000000000000D+00 -.000000000000000D+00 -.545730613010191D+02
 0.444220112648602D+02 0.330618186879177D+01 -.339646347336462D+02 -.284391953767302D+02
 0.408431472627229D+02 0.187862870407498D+01 0.343294875028674D+02 0.220481228295556D+02
 0.138245119633163D+02 -.401829454926424D+01 0.909148202784129D+01 0.960809005352615D+01
 0.100564521111387D+02 -.116651602360254D+01 -.945633479706241D+01 -.321701750635144D+01
0.248883007401D-02 0.000000000000D+00 0.000000000000D+00 0.115961042303D-03 0.000000000000D+00  6 21 1 -13 13 1 21 2 0.17290923D-01 0.40767282D-02 0.17321602D+04 0.18538031D+03 0.24783958D+04 0.14450371D+01  1  2  2  3  6  5        1 0.352616307213D+03
0.115629948882D-03 0.120832037638D-03 0.548290285195D-05 0.115961042303D-03 0.000000000000D+00  6 21 1 -13 13 1 21 4 0.17290923D-01 0.40767282D-02 0.17321602D+04 0.18538031D+03 0.24783958D+04 0.14450371D+01  1  2  3  3  6  5        1 -.450960508604D+02
0.166716947736D-03 0.000000000000D+00 0.000000000000D+00 0.115961042303D-03 0.000000000000D+00  6 21 1 -13 13 1 21 4 0.17290923D-01 0.40767282D-02 0.17321602D+04 0.18538031D+03 0.24783958D+04 0.14450371D+01  1  2 15  3  6  5        1 0.493224765684D+02
0.682623343662D-03 0.000000000000D+00 0.000000000000D+00 0.125554517050D-03 0.000000000000D+00  6 21 1 -13 13 1 21 4 0.17290923D-01 0.40767282D-02 0.19348536D+04 0.91827624D+02 0.22556922D+04 0.15036235D+01  1  2 12  3  6  5        1 0.235139575188D+03
-.131744797862D-02 0.000000000000D+00 0.000000000000D+00 0.115961042303D-03 0.000000000000D+00  6 21 1 -13 13 1 21 4 0.17290923D-01 0.40767282D-02 0.17321602D+04 0.18538031D+03 0.24783958D+04 0.14450371D+01  1  2  4  3  6  5        1 -.389761196676D+03
  </mgrwgt>
  </event>
  <event npLO=' -1 ' npNLO=' 1 '>
  6     66 0.11644275E+02 0.18219363E+02 0.75467711E-02 0.14001267E+00
       21 -1    0    0  501  502 0.00000000E+00 0.00000000E+00 0.29889151E+03 0.29889151E+03 0.00000000E+00 0.0000E+00 0.9000E+01
        3 -1    0    0  502    0 0.00000000E+00 0.00000000E+00 -.15394302E+02 0.15394302E+02 0.00000000E+00 0.0000E+00 0.9000E+01
       23  2    1    2    0    0 -.14206792E+02 -.11406677E+02 0.13168521E+03 0.16138445E+03 0.91498633E+02 0.0000E+00 0.0000E+00
      -13  1    3    3    0    0 0.33857620E+02 -.36761021E+01 0.19865345E+02 0.39426947E+02 0.00000000E+00 0.0000E+00 0.9000E+01
       13  1    3    3    0    0 -.48064412E+02 -.77305746E+01 0.11181987E+03 0.12195750E+03 0.00000000E+00 0.0000E+00 0.9000E+01
        3  1    1    2  501    0 0.14206792E+02 0.11406677E+02 0.15181199E+03 0.15290136E+03 0.00000000E+00 0.0000E+00 0.9000E+01
#aMCatNLO 1  0  0  1  1 0.40874880D+02 0.00000000D+00  -5  6  0 0.00000000D+00 0.00000000D+00 0.00000000D+00 0.00000000D+00 0.00000000D+00
  <mgrwgt>
 0.1744756772D+03   16    2    0
 0.678323386574695D+02 0.000000000000000D+00 0.000000000000000D+00 0.678323386574695D+02
 0.678323386574695D+02 0.000000000000000D+00 0.000000000000000D+00 -.678323386574695D+02
 0.498254970409105D+02 0.338576203874877D+02 -.367610213508401D+01 -.363693273262373D+02
 0.488623302626418D+02 -.480644119834919D+02 -.773057460505636D+01 0.419259295094315D+01
 0.369768500113867D+02 0.142067915960042D+02 0.114066767401404D+02 0.321767343752941D+02
 0.000000000000000D+00 0.000000000000000D+00 0.000000000000000D+00 0.000000000000000D+00
 0.885832434137990D+02 0.000000000000000D+00 0.000000000000000D+00 0.885832434137990D+02
 0.823625798294355D+02 0.000000000000000D+00 0.000000000000000D+00 -.823625798294355D+02
 0.491922929090010D+02 0.299324512134766D+02 -.141845717536625D+02 -.363693273262373D+02
 0.556552418661941D+02 -.522075982984977D+02 -.188227200859750D+02 0.419259295094315D+01
 0.343447590082311D+02 0.113795281183373D+02 0.383752212752062D+01 0.321767343752941D+02
 0.317535294598083D+02 0.108956189666838D+02 0.291697697121168D+02 0.622066358436350D+01
0.183834269276D-02 0.000000000000D+00 0.000000000000D+00 0.291902752897D-02 0.000000000000D+00  6 21 3 -13 13 3 21 2 0.45983309D-01 0.23683542D-02 0.25481341D+04 0.33194520D+03 0.31088597D+04 0.14015138D+01  1  2  2  1  6  1       21 0.734941174575D+02
0.727573231870D-04 0.892510484194D-04 0.404987648544D-05 0.291902752897D-02 0.000000000000D+00  6 21 3 -13 13 3 21 4 0.45983309D-01 0.23683542D-02 0.25481341D+04 0.33194520D+03 0.31088597D+04 0.14015138D+01  1  2  3  1  6  1       21 -.850795850688D+01
0.137165974018D-03 0.000000000000D+00 0.000000000000D+00 0.291902752897D-02 0.000000000000D+00  6 21 3 -13 13 3 21 4 0.45983309D-01 0.23683542D-02 0.25481341D+04 0.33194520D+03 0.31088597D+04 0.14015138D+01  1  2 15  1  6  1       21 0.107712780712D+02
-.151239516281D-03 0.000000000000D+00 0.000000000000D+00 0.291902752897D-02 0.000000000000D+00  6 21 3 -13 13 3 21 4 0.45983309D-01 0.23683542D-02 0.25481341D+04 0.33194520D+03 0.31088597D+04 0.14015138D+01  1  2  4  1  6  1       21 -.118764358062D+02
-.253212678092D-02 0.000000000000D+00 -.174809030397D-02 0.291902752897D-02 0.000000000000D+00  6 21 3 -13 13 3 21 4 0.71114695D-01 0.23683542D-02 0.25481341D+04 0.33194520D+03 0.31088597D+04 0.14015138D+01  1  2  5  1  6  1       21 -.902891307379D+02
0.244074357777D-02 0.000000000000D+00 0.122795004773D-02 0.291902752897D-02 0.000000000000D+00  6 21 3 -13 13 3 21 4 0.45983309D-01 0.23683542D-02 0.25481341D+04 0.33194520D+03 0.31088597D+04 0.14015138D+01  1  2  6  1  6  1       21 0.210844023130D+03
-.226013361453D-03 0.000000000000D+00 -.259449060478D-03 0.291902752897D-02 0.000000000000D+00  6 -3 3 -13 13 3 -3 4 0.71114695D-01 0.23683542D-02 0.25481341D+04 0.33194520D+03 0.31088597D+04 0.14015138D+01  1  2  5  4  6  1       21 -.510846705319D+00
-.226013361453D-03 0.000000000000D+00 -.259449060478D-03 0.291902752897D-02 0.000000000000D+00  6 3 3 -13 13 3 3 4 0.71114695D-01 0.23683542D-02 0.25481341D+04 0.33194520D+03 0.31088597D+04 0.14015138D+01  1  2  5  5  6  1       21 -.566846427311D+00
-.226013361453D-03 0.000000000000D+00 -.259449060478D-03 0.291902752897D-02 0.000000000000D+00  6 -2 3 -13 13 3 -2 4 0.71114695D-01 0.23683542D-02 0.25481341D+04 0.33194520D+03 0.31088597D+04 0.14015138D+01  1  2  5  6  6  1       21 -.822519978504D+00
-.226013361453D-03 0.000000000000D+00 -.259449060478D-03 0.291902752897D-02 0.000000000000D+00  6 -4 3 -13 13 3 -4 4 0.71114695D-01 0.23683542D-02 0.25481341D+04 0.33194520D+03 0.31088597D+04 0.14015138D+01  1  2  5  6  6  1       21 -.285920105027D+00
-.226013361453D-03 0.000000000000D+00 -.259449060478D-03 0.291902752897D-02 0.000000000000D+00  6 2 3 -13 13 3 2 4 0.71114695D-01 0.23683542D-02 0.25481341D+04 0.33194520D+03 0.31088597D+04 0.14015138D+01  1  2  5  7  6  1       21 -.366794921270D+01
-.226013361453D-03 0.000000000000D+00 -.259449060478D-03 0.291902752897D-02 0.000000000000D+00  6 4 3 -13 13 3 4 4 0.71114695D-01 0.23683542D-02 0.25481341D+04 0.33194520D+03 0.31088597D+04 0.14015138D+01  1  2  5  7  6  1       21 -.283424843946D+00
-.226013361453D-03 0.000000000000D+00 -.259449060478D-03 0.291902752897D-02 0.000000000000D+00  6 -1 3 -13 13 3 -1 4 0.71114695D-01 0.23683542D-02 0.25481341D+04 0.33194520D+03 0.31088597D+04 0.14015138D+01  1  2  5  8  6  1       21 -.103133971219D+01
-.226013361453D-03 0.000000000000D+00 -.259449060478D-03 0.291902752897D-02 0.000000000000D+00  6 -5 3 -13 13 3 -5 4 0.71114695D-01 0.23683542D-02 0.25481341D+04 0.33194520D+03 0.31088597D+04 0.14015138D+01  1  2  5  8  6  1       21 -.173870518631D+00
-.226013361453D-03 0.000000000000D+00 -.259449060478D-03 0.291902752897D-02 0.000000000000D+00  6 1 3 -13 13 3 1 4 0.71114695D-01 0.23683542D-02 0.25481341D+04 0.33194520D+03 0.31088597D+04 0.14015138D+01  1  2  5  9  6  1       21 -.244445951570D+01
-.226013361453D-03 0.000000000000D+00 -.259449060478D-03 0.291902752897D-02 0.000000000000D+00  6 5 3 -13 13 3 5 4 0.71114695D-01 0.23683542D-02 0.25481341D+04 0.33194520D+03 0.31088597D+04 0.14015138D+01  1  2  5  9  6  1       21 -.173039394825D+00
  </mgrwgt>
  </event>
  <event npLO=' -1 ' npNLO=' 1 '>
  6     66 0.11644275E+02 0.24594344E+02 0.75467711E-02 0.14905965E+00
       21 -1    0    0  501  502 0.00000000E+00 0.00000000E+00 0.20991860E+02 0.20991860E+02 0.00000000E+00 0.0000E+00 0.9000E+01
        1 -1    0    0  502    0 0.00000000E+00 0.00000000E+00 -.11812119E+04 0.11812119E+04 0.00000000E+00 0.0000E+00 0.9000E+01
       23  2    1    2    0    0 0.17986312E+02 -.16774216E+02 -.11712772E+04 0.11752382E+04 0.93219212E+02 0.0000E+00 0.0000E+00
      -13  1    3    3    0    0 0.11674320E+02 -.25965721E+02 -.10188161E+03 0.10578455E+03 0.00000000E+00 0.0000E+00 0.9000E+01
       13  1    3    3    0    0 0.63119919E+01 0.91915050E+01 -.10693956E+04 0.10694537E+04 0.00000000E+00 0.0000E+00 0.9000E+01
        1  1    1    2  501    0 -.17986312E+02 0.16774216E+02 0.11057099E+02 0.26965555E+02 0.00000000E+00 0.0000E+00 0.9000E+01
#aMCatNLO 1  0  0  1  2 0.60362373D+01 0.00000000D+00  -5  6  0 0.00000000D+00 0.00000000D+00 0.00000000D+00 0.00000000D+00 0.00000000D+00
  <mgrwgt>
 0.1100035740D+04   49    2    0
 0.157466936261308D+03 0.000000000000000D+00 0.000000000000000D+00 0.157466936261308D+03
 0.157466936261308D+03 0.000000000000000D+00 0.000000000000000D+00 -.157466936261308D+03
 0.284805739911257D+02 0.116743200930580D+02 -.259657208043259D+02 0.796673296027102D+00
 0.142782625827494D+03 0.631199191233573D+01 0.919150496000558D+01 -.142346595438257D+03
 0.143670672703996D+03 -.179863120053938D+02 0.167742158443203D+02 0.141549922142230D+03
 0.000000000000000D+00 0.000000000000000D+00 0.000000000000000D+00 0.000000000000000D+00
 0.180791589300566D+03 0.000000000000000D+00 0.000000000000000D+00 0.180791589300566D+03
 0.157879090931691D+03 0.000000000000000D+00 0.000000000000000D+00 -.157879090931691D+03
 0.283703584725856D+02 0.111461907531658D+02 -.260769051694493D+02 0.796673296027102D+00
 0.142655125279897D+03 0.366035464730215D+01 0.863326934690657D+01 -.142346595438257D+03
 0.143965159936025D+03 -.206583688360976D+02 0.162116814046391D+02 0.141549922142230D+03
 0.236800365437495D+02 0.585182343562967D+01 0.123195441790359D+01 0.229124983688758D+02
0.177442499562D-02 0.000000000000D+00 0.000000000000D+00 0.129279220505D-01 0.000000000000D+00  6 21 1 -13 13 1 21 2 0.32295170D-02 0.18172491D+00 0.10308558D+04 0.60488174D+03 0.36604548D+04 0.13607057D+01  1  2  2  1  6  1       21 0.226217969227D+02
0.245470262640D-03 0.861478612361D-04 0.390906553671D-05 0.129279220505D-01 0.000000000000D+00  6 21 1 -13 13 1 21 4 0.32295170D-02 0.18172491D+00 0.10308558D+04 0.60488174D+03 0.36604548D+04 0.13607057D+01  1  2  3  1  6  1       21 0.482709305897D+01
0.134997700856D-03 0.000000000000D+00 0.000000000000D+00 0.129279220505D-01 0.000000000000D+00  6 21 1 -13 13 1 21 4 0.32295170D-02 0.18172491D+00 0.10308558D+04 0.60488174D+03 0.36604548D+04 0.13607057D+01  1  2 15  1  6  1       21 0.318657583002D+01
0.372047454924D-01 0.000000000000D+00 0.000000000000D+00 0.130788712665D-01 0.000000000000D+00  6 21 1 -13 13 1 21 4 0.37175914D-02 0.18172491D+00 0.12241753D+04 0.53602135D+03 0.35523618D+04 0.13686266D+01  1  2 12  1  6  1       21 0.723620376760D+03
0.372047454924D-01 0.000000000000D+00 0.000000000000D+00 0.130788712665D-01 0.000000000000D+00  6 21 1 -13 13 1 21 4 0.37175914D-02 0.18172491D+00 0.12241753D+04 0.53602135D+03 0.35523618D+04 0.13686266D+01  1  2 12  1  6  1       21 0.723620376760D+03
-.377877694992D-01 0.000000000000D+00 0.000000000000D+00 0.129279220505D-01 0.000000000000D+00  6 21 1 -13 13 1 21 4 0.32295170D-02 0.18172491D+00 0.10308558D+04 0.60488174D+03 0.36604548D+04 0.13607057D+01  1  2  4  1  6  1       21 -.891967731247D+03
-.941540515832D-01 0.000000000000D+00 -.347520249145D-02 0.129279220505D-01 0.000000000000D+00  6 21 1 -13 13 1 21 4 0.37161386D-02 0.18172491D+00 0.10308558D+04 0.60488174D+03 0.36604548D+04 0.13607057D+01  1  2  5  1  6  1       21 -.187506434734D+04
0.908954396372D-01 0.000000000000D+00 0.334201743282D-02 0.129279220505D-01 0.000000000000D+00  6 21 1 -13 13 1 21 4 0.32295170D-02 0.18172491D+00 0.10308558D+04 0.60488174D+03 0.36604548D+04 0.13607057D+01  1  2  6  1  6  1       21 0.224552234396D+04
0.733141782241D-02 0.000000000000D+00 0.000000000000D+00 0.129279220505D-01 0.495731147436D-02  6 21 1 -13 13 1 21 4 0.37078864D-02 0.18220056D+00 0.12241753D+04 0.53602135D+03 0.35523618D+04 0.13686266D+01  1  2 11  1  6  1       21 0.142489479789D+03
0.142167100875D-02 0.000000000000D+00 0.000000000000D+00 0.130788712665D-01 0.000000000000D+00  6 -1 1 -13 13 1 -1 4 0.37175914D-02 0.18172491D+00 0.12241753D+04 0.53602135D+03 0.35523618D+04 0.13686266D+01  1  2 12  4  6  1       21 0.166657845842D+01
0.142167100875D-02 0.000000000000D+00 0.000000000000D+00 0.130788712665D-01 0.000000000000D+00  6 -1 1 -13 13 1 -1 4 0.37175914D-02 0.18172491D+00 0.12241753D+04 0.53602135D+03 0.35523618D+04 0.13686266D+01  1  2 12  4  6  1       21 0.166657845842D+01
-.350171649262D-02 0.000000000000D+00 -.130974937180D-03 0.129279220505D-01 0.000000000000D+00  6 -1 1 -13 13 1 -1 4 0.37161386D-02 0.18172491D+00 0.10308558D+04 0.60488174D+03 0.36604548D+04 0.13607057D+01  1  2  5  4  6  1       21 -.420556243531D+01
0.798433510702D-03 0.000000000000D+00 0.000000000000D+00 0.129279220505D-01 0.476919379262D-03  6 -1 1 -13 13 1 -1 4 0.37078864D-02 0.18220056D+00 0.12241753D+04 0.53602135D+03 0.35523618D+04 0.13686266D+01  1  2 11  4  6  1       21 0.934956011568D+00
0.142167100875D-02 0.000000000000D+00 0.000000000000D+00 0.130788712665D-01 0.000000000000D+00  6 1 1 -13 13 1 1 4 0.37175914D-02 0.18172491D+00 0.12241753D+04 0.53602135D+03 0.35523618D+04 0.13686266D+01  1  2 12  5  6  1       21 0.181794300193D+01
0.142167100875D-02 0.000000000000D+00 0.000000000000D+00 0.130788712665D-01 0.000000000000D+00  6 1 1 -13 13 1 1 4 0.37175914D-02 0.18172491D+00 0.12241753D+04 0.53602135D+03 0.35523618D+04 0.13686266D+01  1  2 12  5  6  1       21 0.181794300193D+01
-.350171649262D-02 0.000000000000D+00 -.130974937180D-03 0.129279220505D-01 0.000000000000D+00  6 1 1 -13 13 1 1 4 0.37161386D-02 0.18172491D+00 0.10308558D+04 0.60488174D+03 0.36604548D+04 0.13607057D+01  1  2  5  5  6  1       21 -.458704942690D+01
0.171652181906D-02 0.000000000000D+00 0.000000000000D+00 0.129279220505D-01 0.440548445197D-03  6 1 1 -13 13 1 1 4 0.37078864D-02 0.18220056D+00 0.12241753D+04 0.53602135D+03 0.35523618D+04 0.13686266D+01  1  2 11  5  6  1       21 0.219220571578D+01
0.142167100875D-02 0.000000000000D+00 0.000000000000D+00 0.130788712665D-01 0.000000000000D+00  6 -2 1 -13 13 1 -2 4 0.37175914D-02 0.18172491D+00 0.12241753D+04 0.53602135D+03 0.35523618D+04 0.13686266D+01  1  2 12  6  6  1       21 0.165489573652D+01
0.142167100875D-02 0.000000000000D+00 0.000000000000D+00 0.130788712665D-01 0.000000000000D+00  6 -4 1 -13 13 1 -4 4 0.37175914D-02 0.18172491D+00 0.12241753D+04 0.53602135D+03 0.35523618D+04 0.13686266D+01  1  2 12  6  6  1       21 0.110696097079D+01
0.142167100875D-02 0.000000000000D+00 0.000000000000D+00 0.130788712665D-01 0.000000000000D+00  6 -2 1 -13 13 1 -2 4 0.37175914D-02 0.18172491D+00 0.12241753D+04 0.53602135D+03 0.35523618D+04 0.13686266D+01  1  2 12  6  6  1       21 0.165489573652D+01
0.142167100875D-02 0.000000000000D+00 0.000000000000D+00 0.130788712665D-01 0.000000000000D+00  6 -4 1 -13 13 1 -4 4 0.37175914D-02 0.18172491D+00 0.12241753D+04 0.53602135D+03 0.35523618D+04 0.13686266D+01  1  2 12  6  6  1       21 0.110696097079D+01
-.350171649262D-02 0.000000000000D+00 -.130974937180D-03 0.129279220505D-01 0.000000000000D+00  6 -2 1 -13 13 1 -2 4 0.37161386D-02 0.18172491D+00 0.10308558D+04 0.60488174D+03 0.36604548D+04 0.13607057D+01  1  2  5  6  6  1       21 -.417605230175D+01
-.350171649262D-02 0.000000000000D+00 -.130974937180D-03 0.129279220505D-01 0.000000000000D+00  6 -4 1 -13 13 1 -4 4 0.37161386D-02 0.18172491D+00 0.10308558D+04 0.60488174D+03 0.36604548D+04 0.13607057D+01  1  2  5  6  6  1       21 -.279650247830D+01
0.728806057304D-03 0.000000000000D+00 0.000000000000D+00 0.129279220505D-01 0.316574882244D-03  6 -2 1 -13 13 1 -2 4 0.37078864D-02 0.18220056D+00 0.12241753D+04 0.53602135D+03 0.35523618D+04 0.13686266D+01  1  2 11  6  6  1       21 0.847475910852D+00
0.728806057304D-03 0.000000000000D+00 0.000000000000D+00 0.129279220505D-01 0.316574882244D-03  6 -4 1 -13 13 1 -4 4 0.37078864D-02 0.18220056D+00 0.12241753D+04 0.53602135D+03 0.35523618D+04 0.13686266D+01  1  2 11  6  6  1       21 0.567048462109D+00
0.142167100875D-02 0.000000000000D+00 0.000000000000D+00 0.130788712665D-01 0.000000000000D+00  6 2 1 -13 13 1 2 4 0.37175914D-02 0.18172491D+00 0.12241753D+04 0.53602135D+03 0.35523618D+04 0.13686266D+01  1  2 12  7  6  1       21 0.192066251759D+01
0.142167100875D-02 0.000000000000D+00 0.000000000000D+00 0.130788712665D-01 0.000000000000D+00  6 4 1 -13 13 1 4 4 0.37175914D-02 0.18172491D+00 0.12241753D+04 0.53602135D+03 0.35523618D+04 0.13686266D+01  1  2 12  7  6  1       21 0.110650943518D+01
0.142167100875D-02 0.000000000000D+00 0.000000000000D+00 0.130788712665D-01 0.000000000000D+00  6 2 1 -13 13 1 2 4 0.37175914D-02 0.18172491D+00 0.12241753D+04 0.53602135D+03 0.35523618D+04 0.13686266D+01  1  2 12  7  6  1       21 0.192066251759D+01
0.142167100875D-02 0.000000000000D+00 0.000000000000D+00 0.130788712665D-01 0.000000000000D+00  6 4 1 -13 13 1 4 4 0.37175914D-02 0.18172491D+00 0.12241753D+04 0.53602135D+03 0.35523618D+04 0.13686266D+01  1  2 12  7  6  1       21 0.110650943518D+01
-.350171649262D-02 0.000000000000D+00 -.130974937180D-03 0.129279220505D-01 0.000000000000D+00  6 2 1 -13 13 1 2 4 0.37161386D-02 0.18172491D+00 0.10308558D+04 0.60488174D+03 0.36604548D+04 0.13607057D+01  1  2  5  7  6  1       21 -.484598707854D+01
-.350171649262D-02 0.000000000000D+00 -.130974937180D-03 0.129279220505D-01 0.000000000000D+00  6 4 1 -13 13 1 4 4 0.37161386D-02 0.18172491D+00 0.10308558D+04 0.60488174D+03 0.36604548D+04 0.13607057D+01  1  2  5  7  6  1       21 -.279536275261D+01
0.726089376605D-03 0.000000000000D+00 0.000000000000D+00 0.129279220505D-01 0.315394824993D-03  6 2 1 -13 13 1 2 4 0.37078864D-02 0.18220056D+00 0.12241753D+04 0.53602135D+03 0.35523618D+04 0.13686266D+01  1  2 11  7  6  1       21 0.979598889540D+00
0.726089376605D-03 0.000000000000D+00 0.000000000000D+00 0.129279220505D-01 0.315394824993D-03  6 4 1 -13 13 1 4 4 0.37078864D-02 0.18220056D+00 0.12241753D+04 0.53602135D+03 0.35523618D+04 0.13686266D+01  1  2 11  7  6  1       21 0.564705474013D+00
0.142167100875D-02 0.000000000000D+00 0.000000000000D+00 0.130788712665D-01 0.000000000000D+00  6 -3 1 -13 13 1 -3 4 0.37175914D-02 0.18172491D+00 0.12241753D+04 0.53602135D+03 0.35523618D+04 0.13686266D+01  1  2 12  8  6  1       21 0.150469782546D+01
0.142167100875D-02 0.000000000000D+00 0.000000000000D+00 0.130788712665D-01 0.000000000000D+00  6 -5 1 -13 13 1 -5 4 0.37175914D-02 0.18172491D+00 0.12241753D+04 0.53602135D+03 0.35523618D+04 0.13686266D+01  1  2 12  8  6  1       21 0.737461232689D+00
0.142167100875D-02 0.000000000000D+00 0.000000000000D+00 0.130788712665D-01 0.000000000000D+00  6 -3 1 -13 13 1 -3 4 0.37175914D-02 0.18172491D+00 0.12241753D+04 0.53602135D+03 0.35523618D+04 0.13686266D+01  1  2 12  8  6  1       21 0.150469782546D+01
0.142167100875D-02 0.000000000000D+00 0.000000000000D+00 0.130788712665D-01 0.000000000000D+00  6 -5 1 -13 13 1 -5 4 0.37175914D-02 0.18172491D+00 0.12241753D+04 0.53602135D+03 0.35523618D+04 0.13686266D+01  1  2 12  8  6  1       21 0.737461232689D+00
-.350171649262D-02 0.000000000000D+00 -.130974937180D-03 0.129279220505D-01 0.000000000000D+00  6 -3 1 -13 13 1 -3 4 0.37161386D-02 0.18172491D+00 0.10308558D+04 0.60488174D+03 0.36604548D+04 0.13607057D+01  1  2  5  8  6  1       21 -.379783621009D+01
-.350171649262D-02 0.000000000000D+00 -.130974937180D-03 0.129279220505D-01 0.000000000000D+00  6 -5 1 -13 13 1 -5 4 0.37161386D-02 0.18172491D+00 0.10308558D+04 0.60488174D+03 0.36604548D+04 0.13607057D+01  1  2  5  8  6  1       21 -.186643253795D+01
0.732130686495D-03 0.000000000000D+00 0.000000000000D+00 0.129279220505D-01 0.318019016913D-03  6 -3 1 -13 13 1 -3 4 0.37078864D-02 0.18220056D+00 0.12241753D+04 0.53602135D+03 0.35523618D+04 0.13686266D+01  1  2 11  8  6  1       21 0.774141051297D+00
0.732130686495D-03 0.000000000000D+00 0.000000000000D+00 0.129279220505D-01 0.318019016913D-03  6 -5 1 -13 13 1 -5 4 0.37078864D-02 0.18220056D+00 0.12241753D+04 0.53602135D+03 0.35523618D+04 0.13686266D+01  1  2 11  8  6  1       21 0.379521208315D+00
0.142167100875D-02 0.000000000000D+00 0.000000000000D+00 0.130788712665D-01 0.000000000000D+00  6 3 1 -13 13 1 3 4 0.37175914D-02 0.18172491D+00 0.12241753D+04 0.53602135D+03 0.35523618D+04 0.13686266D+01  1  2 12  9  6  1       21 0.150256890419D+01
0.142167100875D-02 0.000000000000D+00 0.000000000000D+00 0.130788712665D-01 0.000000000000D+00  6 5 1 -13 13 1 5 4 0.37175914D-02 0.18172491D+00 0.12241753D+04 0.53602135D+03 0.35523618D+04 0.13686266D+01  1  2 12  9  6  1       21 0.737309446508D+00
0.142167100875D-02 0.000000000000D+00 0.000000000000D+00 0.130788712665D-01 0.000000000000D+00  6 3 1 -13 13 1 3 4 0.37175914D-02 0.18172491D+00 0.12241753D+04 0.53602135D+03 0.35523618D+04 0.13686266D+01  1  2 12  9  6  1       21 0.150256890419D+01
0.142167100875D-02 0.000000000000D+00 0.000000000000D+00 0.130788712665D-01 0.000000000000D+00  6 5 1 -13 13 1 5 4 0.37175914D-02 0.18172491D+00 0.12241753D+04 0.53602135D+03 0.35523618D+04 0.13686266D+01  1  2 12  9  6  1       21 0.737309446508D+00
-.350171649262D-02 0.000000000000D+00 -.130974937180D-03 0.129279220505D-01 0.000000000000D+00  6 3 1 -13 13 1 3 4 0.37161386D-02 0.18172491D+00 0.10308558D+04 0.60488174D+03 0.36604548D+04 0.13607057D+01  1  2  5  9  6  1       21 -.379248528913D+01
-.350171649262D-02 0.000000000000D+00 -.130974937180D-03 0.129279220505D-01 0.000000000000D+00  6 5 1 -13 13 1 5 4 0.37161386D-02 0.18172491D+00 0.10308558D+04 0.60488174D+03 0.36604548D+04 0.13607057D+01  1  2  5  9  6  1       21 -.186604877003D+01
0.735803065625D-03 0.000000000000D+00 0.000000000000D+00 0.129279220505D-01 0.319614205343D-03  6 3 1 -13 13 1 3 4 0.37078864D-02 0.18220056D+00 0.12241753D+04 0.53602135D+03 0.35523618D+04 0.13686266D+01  1  2 11  9  6  1       21 0.776919803122D+00
0.735803065625D-03 0.000000000000D+00 0.000000000000D+00 0.129279220505D-01 0.319614205343D-03  6 5 1 -13 13 1 5 4 0.37078864D-02 0.18220056D+00 0.12241753D+04 0.53602135D+03 0.35523618D+04 0.13686266D+01  1  2 11  9  6  1       21 0.381346790854D+00
  </mgrwgt>
  </event>
  <event npLO=' -1 ' npNLO=' 1 '>
  7     66 -.11644275E+02 0.18276702E+02 0.75467711E-02 0.15033590E+00
       21 -1    0    0  501  503 0.00000000E+00 0.00000000E+00 0.27063227E+02 0.27063227E+02 0.00000000E+00 0.0000E+00 0.9000E+01
        1 -1    0    0  502    0 0.00000000E+00 0.00000000E+00 -.27968414E+03 0.27968414E+03 0.00000000E+00 0.0000E+00 0.9000E+01
       23  2    1    2    0    0 0.17780034E+02 -.13471398E+02 -.25072060E+03 0.26630823E+03 0.86957700E+02 0.0000E+00 0.0000E+00
      -13  1    3    3    0    0 0.29763488E+02 0.27604154E+02 -.17184347E+03 0.17657303E+03 0.00000000E+00 0.0000E+00 0.9000E+01
       13  1    3    3    0    0 -.11983454E+02 -.41075552E+02 -.78877130E+02 0.89735198E+02 0.00000000E+00 0.0000E+00 0.9000E+01
        1  1    1    2  501    0 -.23008913E+02 0.45382140E+01 0.92631364E+01 0.25215296E+02 0.00000000E+00 0.0000E+00 0.9000E+01
       21  1    1    2  502  503 0.52288788E+01 0.89331840E+01 -.11163445E+02 0.15223845E+02 0.00000000E+00 0.0000E+00 0.9000E+01
#aMCatNLO 2  0  0  1  2 0.13210539D+02 0.00000000D+00  -5  6  0 0.00000000D+00 0.00000000D+00 0.00000000D+00 0.00000000D+00 0.00000000D+00
  <mgrwgt>
 -.1096636880D+03    3    2    0
 0.815124411134051D+02 0.000000000000000D+00 0.000000000000000D+00 0.815124411134051D+02
 0.815124411134051D+02 0.000000000000000D+00 0.000000000000000D+00 -.815124411134051D+02
 0.636990093975469D+02 0.317630233630778D+02 0.310202241340649D+02 -.456773449287249D+02
 0.410051110883456D+02 -.106287613317268D+02 -.387611521026554D+02 -.812537110509794D+01
 0.583207617409177D+02 -.211342620313510D+02 0.774092796859051D+01 0.538027160338229D+02
 0.000000000000000D+00 0.000000000000000D+00 0.000000000000000D+00 0.000000000000000D+00
 0.883006212619149D+02 0.000000000000000D+00 0.000000000000000D+00 0.883006212619149D+02
 0.857202960864185D+02 0.000000000000000D+00 0.000000000000000D+00 -.857202960864185D+02
 0.611087094516558D+02 0.297634879959437D+02 0.276041539161136D+02 -.456773449287249D+02
 0.435525633873361D+02 -.119834536715573D+02 -.410755518540410D+02 -.812537110509794D+01
 0.586918880571972D+02 -.230089131653573D+02 0.453821397153503D+01 0.538027160338229D+02
 0.106677564521442D+02 0.522887884097094D+01 0.893318396639238D+01 0.258032517549633D+01
-.524250141075D-03 0.000000000000D+00 0.000000000000D+00 0.323932956256D-03 0.000000000000D+00  6 21 1 -13 13 1 21 4 0.43785064D-02 0.40916146D-01 0.34330725D+04 0.49094933D+03 0.31300448D+04 0.13744732D+01  1  2 13  1  6  1       21 -.639632195366D+02
-.524250141075D-03 0.000000000000D+00 0.000000000000D+00 0.323932956256D-03 0.000000000000D+00  6 21 1 -13 13 1 21 4 0.43785064D-02 0.40916146D-01 0.34330725D+04 0.49094933D+03 0.31300448D+04 0.13744732D+01  1  2 13  1  6  1       21 -.639632195366D+02
0.147269586339D-03 0.000000000000D+00 0.000000000000D+00 0.322946158910D-03 0.308064068146D-04  6 21 1 -13 13 1 21 4 0.41635734D-02 0.43028329D-01 0.34330725D+04 0.49094933D+03 0.31300448D+04 0.13744732D+01  1  2  1  1  6  1       21 0.182627511198D+02
  </mgrwgt>
  </event>
  <event npLO=' -1 ' npNLO=' 1 '>
  6     66 -.11644275E+02 0.13471807E+02 0.75467711E-02 0.15285702E+00
       21 -1    0    0  501  502 0.00000000E+00 0.00000000E+00 0.12552344E+03 0.12552344E+03 0.00000000E+00 0.0000E+00 0.9000E+01
        1 -1    0    0  502    0 0.00000000E+00 0.00000000E+00 -.27517336E+03 0.27517336E+03 0.00000000E+00 0.0000E+00 0.9000E+01
       23  2    1    2    0    0 0.13289230E+02 0.22104203E+01 -.26648915E+03 0.28308346E+03 0.94542534E+02 0.0000E+00 0.0000E+00
      -13  1    3    3    0    0 0.53682955E+01 0.35221962E+02 -.38016504E+02 0.52102397E+02 0.00000000E+00 0.0000E+00 0.9000E+01
       13  1    3    3    0    0 0.79209341E+01 -.33011542E+02 -.22847264E+03 0.23098106E+03 0.00000000E+00 0.0000E+00 0.9000E+01
        1  1    1    2  501    0 -.13289230E+02 -.22104203E+01 0.11683924E+03 0.11761334E+03 0.00000000E+00 0.0000E+00 0.9000E+01
#aMCatNLO 1  0  0  2  5 0.52756301D+02 0.00000000D+00  -5  6  0 0.00000000D+00 0.00000000D+00 0.00000000D+00 0.00000000D+00 0.00000000D+00
  <mgrwgt>
 -.1424559662D+05    7    2    0
 0.185851303033590D+03 0.000000000000000D+00 0.000000000000000D+00 0.185851303033590D+03
 0.185851303033590D+03 0.000000000000000D+00 0.000000000000000D+00 -.185851303033590D+03
 0.408608845335962D+02 0.536829552068697D+01 0.352219621981674D+02 -.200051660073423D+02
 0.157013862121443D+03 0.792093412164673D+01 -.330115418500461D+02 -.153299868902797D+03
 0.173827859412140D+03 -.132892296423337D+02 -.221042034812125D+01 0.173305034910140D+03
 0.000000000000000D+00 0.000000000000000D+00 0.000000000000000D+00 -.000000000000000D+00
 0.187356294892954D+03 0.000000000000000D+00 0.000000000000000D+00 0.187356294892954D+03
 0.226644380504980D+03 0.000000000000000D+00 0.000000000000000D+00 -.226644380504980D+03
 0.403327604484209D+02 0.379873259422895D+01 0.348151479831111D+02 -.200051660073423D+02
 0.157163717378931D+03 0.184753415029031D+01 -.345857032936053D+02 -.153299868902797D+03
 0.174502713502418D+03 -.200228447364665D+02 -.395570261290589D+01 0.173305034910140D+03
 0.420014840681632D+02 0.143765779919473D+02 0.372625792340006D+01 -.392880856120264D+02
0.425037501316D-01 0.000000000000D+00 0.000000000000D+00 0.293196396414D-01 0.000000000000D+00  6 21 1 -13 13 1 21 2 0.19311299D-01 0.42334362D-01 0.17242864D+04 0.18148958D+03 0.29685797D+04 0.14467023D+01  1  2  2  2  6  2        1 0.258096636171D+03
0.153004948349D-01 0.206354575561D-02 0.936359357147D-04 0.293196396414D-01 0.000000000000D+00  6 21 1 -13 13 1 21 4 0.19311299D-01 0.42334362D-01 0.17242864D+04 0.18148958D+03 0.29685797D+04 0.14467023D+01  1  2  3  2  6  2        1 0.136057582485D+03
0.327075173112D-02 0.000000000000D+00 0.000000000000D+00 0.293196396414D-01 0.000000000000D+00  6 21 1 -13 13 1 21 4 0.19311299D-01 0.42334362D-01 0.17242864D+04 0.18148958D+03 0.29685797D+04 0.14467023D+01  1  2 15  2  6  2        1 0.415681780743D+02
-.130491725807D+01 0.000000000000D+00 0.000000000000D+00 0.293196396414D-01 0.000000000000D+00  6 21 1 -13 13 1 21 4 0.19311299D-01 0.42334362D-01 0.17242864D+04 0.18148958D+03 0.29685797D+04 0.14467023D+01  1  2  4  2  6  2        1 -.165842709612D+05
-.124643100907D+01 0.000000000000D+00 -.100849447842D+00 0.293196396414D-01 0.000000000000D+00  6 21 1 -13 13 1 21 4 0.19311299D-01 0.51853875D-01 0.17242864D+04 0.18148958D+03 0.29685797D+04 0.14467023D+01  1  2  5  2  6  2        1 -.128845035642D+05
0.124326398540D+01 0.000000000000D+00 0.988099380606D-01 0.293196396414D-01 0.000000000000D+00  6 21 1 -13 13 1 21 4 0.19311299D-01 0.42334362D-01 0.17242864D+04 0.18148958D+03 0.29685797D+04 0.14467023D+01  1  2  6  2  6  2        1 0.164829445886D+05
-.348651043551D-01 0.000000000000D+00 -.291722472905D-02 0.293196364535D-01 0.000000000000D+00  6 21 21 -13 13 1 -1 4 0.19311299D-01 0.51853875D-01 0.17242864D+04 0.18148976D+03 0.29685800D+04 0.14467022D+01  1  2  5 10  6  2        1 -.169548908467D+04
  </mgrwgt>
  </event>
  <event npLO=' -1 ' npNLO=' 1 '>
  6     66 0.11644275E+02 0.28358714E+02 0.75467711E-02 0.14364672E+00
       21 -1    0    0  501  502 0.00000000E+00 0.00000000E+00 0.79852536E+02 0.79852536E+02 0.00000000E+00 0.0000E+00 0.9000E+01
        3 -1    0    0  502    0 0.00000000E+00 0.00000000E+00 -.50435939E+02 0.50435939E+02 0.00000000E+00 0.0000E+00 0.9000E+01
       23  2    1    2    0    0 -.10505697E+02 0.26340976E+02 0.81862751E+01 0.94863297E+02 0.90154386E+02 0.0000E+00 0.0000E+00
      -13  1    3    3    0    0 -.47489313E+02 0.30764161E+02 0.10479728E+02 0.57545575E+02 0.00000000E+00 0.0000E+00 0.9000E+01
       13  1    3    3    0    0 0.36983616E+02 -.44231850E+01 -.22934531E+01 0.37317722E+02 0.00000000E+00 0.0000E+00 0.9000E+01
        3  1    1    2  501    0 0.10505697E+02 -.26340976E+02 0.21230322E+02 0.35425178E+02 0.00000000E+00 0.0000E+00 0.9000E+01
#aMCatNLO 1  0  0  2  1 0.99308939D+01 0.00000000D+00  -5  6  0 0.00000000D+00 0.00000000D+00 0.00000000D+00 0.00000000D+00 0.00000000D+00
  <mgrwgt>
 0.9783758029D+02   11    2    0
 0.634620959989812D+02 0.000000000000000D+00 0.000000000000000D+00 0.634620959989812D+02
 0.634620959989812D+02 0.000000000000000D+00 0.000000000000000D+00 -.634620959989812D+02
 0.566420564463632D+02 -.474893134305869D+02 0.307641609029520D+02 -.257954885624347D+01
 0.388384167063437D+02 0.369836163351333D+02 -.442318496005487D+01 -.110031890759179D+02
 0.314437188452557D+02 0.105056970954536D+02 -.263409759428972D+02 0.135827379321614D+02
 0.000000000000000D+00 0.000000000000000D+00 0.000000000000000D+00 -.000000000000000D+00
 0.668582169948227D+02 0.000000000000000D+00 0.000000000000000D+00 0.668582169948227D+02
 0.677365561647797D+02 0.000000000000000D+00 0.000000000000000D+00 -.677365561647797D+02
 0.593308975730339D+02 -.508541475929440D+02 0.304525369569624D+02 -.257954885624347D+01
 0.367803077866151D+02 0.347896180047535D+02 -.462637548422875D+01 -.110031890759179D+02
 0.310286946271779D+02 0.869312525200657D+01 -.265088418058165D+02 0.135827379321614D+02
 0.745487317277561D+01 0.737140433618390D+01 0.682680333082812D+00 -.878339169957005D+00
0.363207288127D-03 0.000000000000D+00 0.000000000000D+00 0.568852656891D-03 0.000000000000D+00  6 21 3 -13 13 3 21 2 0.12285005D-01 0.77593752D-02 0.37325491D+04 0.80421669D+03 0.37741445D+04 0.13425877D+01  1  2  2  2  6  2        3 0.256509799590D+02
-.156264740420D-04 0.176336171632D-04 0.800147144119D-06 0.568852656891D-03 0.000000000000D+00  6 21 3 -13 13 3 21 4 0.12285005D-01 0.77593752D-02 0.37325491D+04 0.80421669D+03 0.37741445D+04 0.13425877D+01  1  2  3  2  6  2        3 -.543385647388D+01
0.289240181807D-04 0.000000000000D+00 0.000000000000D+00 0.568852656891D-03 0.000000000000D+00  6 21 3 -13 13 3 21 4 0.12285005D-01 0.77593752D-02 0.37325491D+04 0.80421669D+03 0.37741445D+04 0.13425877D+01  1  2 15  2  6  2        3 0.368208097505D+01
0.165666433976D-02 0.000000000000D+00 0.000000000000D+00 0.569665679126D-03 0.000000000000D+00  6 21 3 -13 13 3 21 4 0.12285005D-01 0.87252089D-02 0.42036718D+04 0.79194059D+03 0.37568250D+04 0.13435468D+01  1  2 12  2  6  2        3 0.176657102137D+03
-.786725357562D-03 0.000000000000D+00 0.000000000000D+00 0.568852656891D-03 0.000000000000D+00  6 21 3 -13 13 3 21 4 0.12285005D-01 0.77593752D-02 0.37325491D+04 0.80421669D+03 0.37741445D+04 0.13425877D+01  1  2  4  2  6  2        3 -.100151592133D+03
-.684523793678D-02 0.000000000000D+00 -.147198127265D-02 0.568852656891D-03 0.000000000000D+00  6 21 3 -13 13 3 21 4 0.12285005D-01 0.87169198D-02 0.37325491D+04 0.80421669D+03 0.37741445D+04 0.13425877D+01  1  2  5  2  6  2        3 -.730891816804D+03
0.697912941141D-02 0.000000000000D+00 0.146207143043D-02 0.568852656891D-03 0.000000000000D+00  6 21 3 -13 13 3 21 4 0.12285005D-01 0.77593752D-02 0.37325491D+04 0.80421669D+03 0.37741445D+04 0.13425877D+01  1  2  6  2  6  2        3 0.890518763501D+03
0.209924215504D-11 0.000000000000D+00 0.000000000000D+00 0.568852656891D-03 0.131528853278D-03  6 21 3 -13 13 3 21 4 0.12942427D-01 0.82820044D-02 0.42036718D+04 0.79194059D+03 0.37568250D+04 0.13435468D+01  1  2 11  2  6  2        3 0.222223934207D-06
0.308395968914D-04 0.000000000000D+00 0.000000000000D+00 0.569665679126D-03 0.000000000000D+00  6 21 21 -13 13 3 -3 4 0.12285005D-01 0.87252089D-02 0.42036718D+04 0.79194059D+03 0.37568250D+04 0.13435468D+01  1  2 12 10  6  2        3 0.559152330118D+02
-.120122376676D-03 0.000000000000D+00 -.272140642470D-04 0.568852604113D-03 0.000000000000D+00  6 21 21 -13 13 3 -3 4 0.12285005D-01 0.87169198D-02 0.37325491D+04 0.80421749D+03 0.37741453D+04 0.13425876D+01  1  2  5 10  6  2        3 -.218109314224D+03
0.655566248092D-13 0.000000000000D+00 0.000000000000D+00 0.568852604113D-03 0.154287695515D-05  6 21 21 -13 13 3 -3 4 0.12942427D-01 0.82820044D-02 0.42036718D+04 0.79194059D+03 0.37568250D+04 0.13435468D+01  1  2 11 10  6  2        3 0.118536349508D-06
  </mgrwgt>
  </event>
  <event npLO=' -1 ' npNLO=' 1 '>
  7     66 -.11644275E+02 0.50916914E+02 0.75467711E-02 0.13002943E+00
       21 -1    0    0  501  503 0.00000000E+00 0.00000000E+00 0.17216140E+04 0.17216140E+04 0.00000000E+00 0.0000E+00 0.9000E+01
        1 -1    0    0  502    0 0.00000000E+00 0.00000000E+00 -.44199289E+01 0.44199289E+01 0.00000000E+00 0.0000E+00 0.9000E+01
       23  2    1    2    0    0 -.38777790E+02 -.39791079E+02 0.79880259E+03 0.80579277E+03 0.90163035E+02 0.0000E+00 0.0000E+00
      -11  1    3    3    0    0 0.39996971E+01 -.58913549E+02 0.44332577E+03 0.44724103E+03 0.00000000E+00 0.0000E+00 0.9000E+01
       11  1    3    3    0    0 -.42777487E+02 0.19122470E+02 0.35547682E+03 0.35855174E+03 0.00000000E+00 0.0000E+00 0.9000E+01
        1  1    1    2  501    0 0.28555988E+02 0.32785132E+02 0.80528372E+03 0.80645656E+03 0.00000000E+00 0.0000E+00 0.9000E+01
       21  1    1    2  502  503 0.10221801E+02 0.70059466E+01 0.11310774E+03 0.11378457E+03 0.00000000E+00 0.0000E+00 0.9000E+01
#aMCatNLO 2  0  0  1  2 0.18221023D+02 0.00000000D+00  -5  6  0 0.00000000D+00 0.00000000D+00 0.00000000D+00 0.00000000D+00 0.00000000D+00
  <mgrwgt>
 -.3613158096D+02    3    2    0
 0.807797227300274D+02 0.000000000000000D+00 0.000000000000000D+00 0.807797227300274D+02
 0.807797227300274D+02 0.000000000000000D+00 0.000000000000000D+00 -.807797227300274D+02
 0.591695447816555D+02 0.780486003726218D+01 -.563055190126696D+02 -.164258247336618D+02
 0.467692544428146D+02 -.397679549694426D+02 0.211851810825648D+02 -.125323988599175D+02
 0.556206462355848D+02 0.319630949321804D+02 0.351203379301048D+02 0.289582235935793D+02
 0.000000000000000D+00 0.000000000000000D+00 0.000000000000000D+00 -.000000000000000D+00
 0.867322506757418D+02 0.000000000000000D+00 0.000000000000000D+00 0.867322506757418D+02
 0.877345074098344D+02 0.000000000000000D+00 0.000000000000000D+00 -.877345074098344D+02
 0.612912032068003D+02 0.399969711830683D+01 -.589135493355996D+02 -.164258247336618D+02
 0.485040542066034D+02 -.427774868484385D+02 0.191224703483814D+02 -.125323988599175D+02
 0.522387604020642D+02 0.285559882899616D+02 0.327851324144362D+02 0.289582235935793D+02
 0.124327402701083D+02 0.102218014401701D+02 0.700594657278197D+01 -.100225673409266D+01
-.799624859030D-02 0.000000000000D+00 0.000000000000D+00 0.385479181020D-03 0.000000000000D+00  6 21 1 -11 11 1 21 4 0.28766731D+00 0.62608578D-03 0.65428823D+04 0.34008669D+04 0.67424259D+04 0.12611408D+01  1  2 13  1  6  1       21 -.196636109233D+02
-.799624859030D-02 0.000000000000D+00 0.000000000000D+00 0.385479181020D-03 0.000000000000D+00  6 21 1 -11 11 1 21 4 0.28766731D+00 0.62608578D-03 0.65428823D+04 0.34008669D+04 0.67424259D+04 0.12611408D+01  1  2 13  1  6  1       21 -.196636109233D+02
0.105296376220D-02 0.000000000000D+00 0.000000000000D+00 0.398815542925D-03 0.350474838480D-04  6 21 1 -11 11 1 21 4 0.26486369D+00 0.67998905D-03 0.65428823D+04 0.34008669D+04 0.67424259D+04 0.12611408D+01  1  2  1  1  6  1       21 0.319564088756D+01
  </mgrwgt>
  </event>
  <event npLO=' -1 ' npNLO=' 1 '>
  7     66 -.11644275E+02 0.11178652E+03 0.75467711E-02 0.11669214E+00
       21 -1    0    0  503  502 0.00000000E+00 0.00000000E+00 0.19597668E+02 0.19597668E+02 0.00000000E+00 0.0000E+00 0.9000E+01
        1 -1    0    0  502    0 0.00000000E+00 0.00000000E+00 -.11322353E+04 0.11322353E+04 0.00000000E+00 0.0000E+00 0.9000E+01
       23  2    1    2    0    0 0.11319674E+03 0.52048574E+01 -.33402516E+03 0.36498741E+03 0.93821164E+02 0.0000E+00 0.0000E+00
      -13  1    3    3    0    0 0.12093237E+03 0.62271448E+01 -.33581612E+03 0.35698163E+03 0.00000000E+00 0.0000E+00 0.9000E+01
       13  1    3    3    0    0 -.77356288E+01 -.10222875E+01 0.17909621E+01 0.80057835E+01 0.00000000E+00 0.0000E+00 0.9000E+01
        1  1    1    2  501    0 -.94659985E+02 -.48375224E+01 -.63282702E+03 0.63988589E+03 0.00000000E+00 0.0000E+00 0.9000E+01
       21  1    1    2  503  501 -.18536752E+02 -.36733497E+00 -.14578549E+03 0.14695970E+03 0.00000000E+00 0.0000E+00 0.9000E+01
#aMCatNLO 2  0  0  1  5 0.42744688D+02 0.00000000D+00  -5  6  0 0.00000000D+00 0.00000000D+00 0.00000000D+00 0.00000000D+00 0.00000000D+00
  <mgrwgt>
 -.1518134969D+03    3    2    0
 0.136586479679384D+03 0.000000000000000D+00 0.000000000000000D+00 0.136586479679384D+03
 0.136586479679384D+03 0.000000000000000D+00 0.000000000000000D+00 -.136586479679384D+03
 0.116383318629354D+03 0.112775298778036D+03 0.606549968945044D+01 0.281072687079993D+02
 0.363145850730113D+02 -.101763838766685D+02 -.107065487285263D+01 0.348431341638908D+02
 0.120475055656403D+03 -.102598914901368D+03 -.499484481659781D+01 -.629504028718902D+02
 0.000000000000000D+00 -.000000000000000D+00 -.000000000000000D+00 -.000000000000000D+00
 0.141128644568412D+03 0.000000000000000D+00 0.000000000000000D+00 0.141128644568412D+03
 0.157226568129220D+03 0.000000000000000D+00 0.000000000000000D+00 -.157226568129220D+03
 0.124311837361283D+03 0.120932365482497D+03 0.622714482906561D+01 0.281072687079993D+02
 0.357061482496636D+02 -.773562879209154D+01 -.102228746202870D+01 0.348431341638908D+02
 0.113783423870852D+03 -.946599846984537D+02 -.483752239573989D+01 -.629504028718902D+02
 0.245538032158337D+02 -.185367519919513D+02 -.367334971297020D+00 -.160979235608087D+02
-.430570027915D-02 0.000000000000D+00 0.000000000000D+00 0.647119443865D-04 0.000000000000D+00  6 21 1 -13 13 1 21 4 0.34706376D-02 0.15132306D+00 0.14667556D+05 0.12888563D+05 0.16983748D+05 0.11980691D+01  1  2 13  1  6  1       21 -.773414801752D+02
-.430570027915D-02 0.000000000000D+00 0.000000000000D+00 0.647119443865D-04 0.000000000000D+00  6 21 1 -13 13 1 21 4 0.34706376D-02 0.15132306D+00 0.14667556D+05 0.12888563D+05 0.16983748D+05 0.11980691D+01  1  2 13  1  6  1       21 -.773414801752D+02
0.163983609564D-03 0.000000000000D+00 0.000000000000D+00 0.656719366752D-04 0.455430871280D-04  6 21 1 -13 13 1 21 4 0.30150259D-02 0.17419005D+00 0.14667556D+05 0.12888563D+05 0.16983748D+05 0.11980691D+01  1  2  1  1  6  1       21 0.286946348274D+01
  </mgrwgt>
  </event>
  <event npLO=' -1 ' npNLO=' 1 '>
  6     66 -.11644275E+02 0.10069483E+02 0.75467711E-02 0.15664544E+00
       21 -1    0    0  501  502 0.00000000E+00 0.00000000E+00 0.21178725E+01 0.21178725E+01 0.00000000E+00 0.0000E+00 0.9000E+01
        1 -1    0    0  502    0 0.00000000E+00 0.00000000E+00 -.14692723E+04 0.14692723E+04 0.00000000E+00 0.0000E+00 0.9000E+01
       23  2    1    2    0    0 0.88677294E+01 0.47705194E+01 -.14274244E+04 0.14304040E+04 0.91726098E+02 0.0000E+00 0.0000E+00
      -13  1    3    3    0    0 0.83128829E+01 0.41515684E+02 -.11185518E+04 0.11193529E+04 0.00000000E+00 0.0000E+00 0.9000E+01
       13  1    3    3    0    0 0.55484647E+00 -.36745165E+02 -.30887262E+03 0.31105113E+03 0.00000000E+00 0.0000E+00 0.9000E+01
        1  1    1    2  501    0 -.88677294E+01 -.47705194E+01 -.39730012E+02 0.40986197E+02 0.00000000E+00 0.0000E+00 0.9000E+01
#aMCatNLO 1  0  0  1  2 0.87764319D+01 0.00000000D+00  -5  6  0 0.00000000D+00 0.00000000D+00 0.00000000D+00 0.00000000D+00 0.00000000D+00
  <mgrwgt>
 -.5197075287D+04   14    2    0
 0.557828951432895D+02 0.000000000000000D+00 0.000000000000000D+00 0.557828951432895D+02
 0.557828951432895D+02 0.000000000000000D+00 0.000000000000000D+00 -.557828951432895D+02
 0.530318997417741D+02 0.831288290869817D+01 0.415156840185208D+02 -.319331543766379D+02
 0.404582396313280D+02 0.554846467104297D+00 -.367451646681366D+02 0.169220026289866D+02
 0.180756509134769D+02 -.886772937580247D+01 -.477051935038424D+01 0.150111517476514D+02
 0.000000000000000D+00 0.000000000000000D+00 -.000000000000000D+00 0.000000000000000D+00
 0.574689391801640D+03 0.000000000000000D+00 0.000000000000000D+00 0.574689391801640D+03
 0.566643562483235D+02 0.000000000000000D+00 0.000000000000000D+00 -.566643562483235D+02
 0.586021422204321D+02 0.340395828835071D+01 0.490193614029469D+02 -.319331543766379D+02
 0.359627104069326D+02 -.280563996301320D+01 -.316083968469679D+02 0.169220026289866D+02
 0.184498746311307D+02 -.104738796903970D+02 -.231539226579710D+01 0.150111517476514D+02
 0.518339020791468D+03 0.987556136505946D+01 -.150955722901819D+02 0.518025035553316D+03
0.306480206075D-04 0.000000000000D+00 0.000000000000D+00 0.427924298201D-02 0.000000000000D+00  6 21 1 -13 13 1 21 2 0.32582653D-03 0.22604190D+00 0.19873142D+04 0.10139448D+03 0.26187080D+04 0.14949051D+01  1  2  2  1  6  1       21 0.847014767999D+01
0.482102700947D-05 0.148795324287D-05 0.675177149899D-07 0.427924298201D-02 0.000000000000D+00  6 21 1 -13 13 1 21 4 0.32582653D-03 0.22604190D+00 0.19873142D+04 0.10139448D+03 0.26187080D+04 0.14949051D+01  1  2  3  1  6  1       21 0.254591600019D+00
0.252373697466D-05 0.000000000000D+00 0.000000000000D+00 0.427924298201D-02 0.000000000000D+00  6 21 1 -13 13 1 21 4 0.32582653D-03 0.22604190D+00 0.19873142D+04 0.10139448D+03 0.26187080D+04 0.14949051D+01  1  2 15  1  6  1       21 0.155869056309D+01
-.208390537548D+00 0.000000000000D+00 -.763739707085D-03 0.427924298201D-02 0.000000000000D+00  6 21 1 -13 13 1 21 4 0.34046200D-02 0.22604190D+00 0.19873142D+04 0.10139448D+03 0.26187080D+04 0.14949051D+01  1  2  5  1  6  1       21 -.428259509152D+04
-.918025745137D-01 0.000000000000D+00 -.334351865271D-03 0.427924298201D-02 0.000000000000D+00  6 -1 1 -13 13 1 -1 4 0.34046200D-02 0.22604190D+00 0.19873142D+04 0.10139448D+03 0.26187080D+04 0.14949051D+01  1  2  5  4  6  1       21 -.112362119806D+03
-.918025745137D-01 0.000000000000D+00 -.334351865271D-03 0.427924298201D-02 0.000000000000D+00  6 1 1 -13 13 1 1 4 0.34046200D-02 0.22604190D+00 0.19873142D+04 0.10139448D+03 0.26187080D+04 0.14949051D+01  1  2  5  5  6  1       21 -.121980526514D+03
-.918025745137D-01 0.000000000000D+00 -.334351865271D-03 0.427924298201D-02 0.000000000000D+00  6 -2 1 -13 13 1 -2 4 0.34046200D-02 0.22604190D+00 0.19873142D+04 0.10139448D+03 0.26187080D+04 0.14949051D+01  1  2  5  6  6  1       21 -.111740850791D+03
-.918025745137D-01 0.000000000000D+00 -.334351865271D-03 0.427924298201D-02 0.000000000000D+00  6 -4 1 -13 13 1 -4 4 0.34046200D-02 0.22604190D+00 0.19873142D+04 0.10139448D+03 0.26187080D+04 0.14949051D+01  1  2  5  6  6  1       21 -.746416466413D+02
-.918025745137D-01 0.000000000000D+00 -.334351865271D-03 0.427924298201D-02 0.000000000000D+00  6 2 1 -13 13 1 2 4 0.34046200D-02 0.22604190D+00 0.19873142D+04 0.10139448D+03 0.26187080D+04 0.14949051D+01  1  2  5  7  6  1       21 -.128491562043D+03
-.918025745137D-01 0.000000000000D+00 -.334351865271D-03 0.427924298201D-02 0.000000000000D+00  6 4 1 -13 13 1 4 4 0.34046200D-02 0.22604190D+00 0.19873142D+04 0.10139448D+03 0.26187080D+04 0.14949051D+01  1  2  5  7  6  1       21 -.746162205714D+02
-.918025745137D-01 0.000000000000D+00 -.334351865271D-03 0.427924298201D-02 0.000000000000D+00  6 -3 1 -13 13 1 -3 4 0.34046200D-02 0.22604190D+00 0.19873142D+04 0.10139448D+03 0.26187080D+04 0.14949051D+01  1  2  5  8  6  1       21 -.101665634273D+03
-.918025745137D-01 0.000000000000D+00 -.334351865271D-03 0.427924298201D-02 0.000000000000D+00  6 -5 1 -13 13 1 -5 4 0.34046200D-02 0.22604190D+00 0.19873142D+04 0.10139448D+03 0.26187080D+04 0.14949051D+01  1  2  5  8  6  1       21 -.488865006623D+02
-.918025745137D-01 0.000000000000D+00 -.334351865271D-03 0.427924298201D-02 0.000000000000D+00  6 3 1 -13 13 1 3 4 0.34046200D-02 0.22604190D+00 0.19873142D+04 0.10139448D+03 0.26187080D+04 0.14949051D+01  1  2  5  9  6  1       21 -.101500457817D+03
-.918025745137D-01 0.000000000000D+00 -.334351865271D-03 0.427924298201D-02 0.000000000000D+00  6 5 1 -13 13 1 5 4 0.34046200D-02 0.22604190D+00 0.19873142D+04 0.10139448D+03 0.26187080D+04 0.14949051D+01  1  2  5  9  6  1       21 -.488781059398D+02
  </mgrwgt>
  </event>
  <event npLO=' -1 ' npNLO=' 1 '>
  7     66 0.11644275E+02 0.41708909E+02 0.75467711E-02 0.13112588E+00
       21 -1    0    0  501  502 0.00000000E+00 0.00000000E+00 0.23670792E+02 0.23670792E+02 0.00000000E+00 0.0000E+00 0.9000E+01
        1 -1    0    0  502    0 -.00000000E+00 -.00000000E+00 -.84578725E+03 0.84578725E+03 0.00000000E+00 0.0000E+00 0.9000E+01
       23  2    1    2    0    0 0.42478087E+02 0.17248726E+02 -.81566698E+03 0.82191820E+03 0.90194303E+02 0.0000E+00 0.0000E+00
      -13  1    3    3    0    0 -.83725699E+01 -.27902204E+02 -.36359939E+03 0.36476451E+03 0.00000000E+00 0.0000E+00 0.9000E+01
       13  1    3    3    0    0 0.50850657E+02 0.45150930E+02 -.45206758E+03 0.45715369E+03 0.00000000E+00 0.0000E+00 0.9000E+01
        1  1    1    2  503    0 -.16264872E+02 -.55270609E+01 -.76397602E+01 0.18800542E+02 0.00000000E+00 0.0000E+00 0.9000E+01
       21  1    1    2  501  503 -.26213216E+02 -.11721665E+02 0.11902829E+01 0.28739291E+02 0.00000000E+00 0.0000E+00 0.9000E+01
#aMCatNLO 2  0  0  5  1 0.48435405D+01 0.00000000D+00  -5  6  0 0.00000000D+00 0.00000000D+00 0.00000000D+00 0.00000000D+00 0.00000000D+00
  <mgrwgt>
 0.1078955330D+03    2    2    0
 0.141493654633002D+03 0.000000000000000D+00 0.000000000000000D+00 0.141493654633002D+03
 0.141493654633002D+03 -.000000000000000D+00 -.000000000000000D+00 -.141493654633002D+03
 0.644833439452559D+02 -.833758533766582D+01 -.278879983452205D+02 -.575399501685245D+02
 0.913837684087856D+02 0.509002304548383D+02 0.451710597706306D+02 -.609896304910353D+02
 0.127120196911962D+03 -.425626451171724D+02 -.172830614254101D+02 0.118529580659560D+03
 0.000000000000000D+00 0.000000000000000D+00 0.000000000000000D+00 0.000000000000000D+00
 0.141493654633002D+03 0.000000000000000D+00 0.000000000000000D+00 0.141493654633002D+03
 0.141493654633002D+03 -.000000000000000D+00 -.000000000000000D+00 -.141493654633002D+03
 0.644071155001420D+02 -.837256986891258D+01 -.279022042245970D+02 -.574425243199469D+02
 0.912540978838548D+02 0.508506573509200D+02 0.451509300301573D+02 -.608515779991555D+02
 0.355687686857897D+02 -.162648718581961D+02 -.552706094438489D+01 0.311455108575334D+02
 0.917573271962170D+02 -.262132156238113D+02 -.117216648611755D+02 0.871485914615691D+02
-.302735270682D-02 0.000000000000D+00 0.000000000000D+00 0.294918835489D-02 0.000000000000D+00  6 21 1 -13 13 1 21 4 0.36416604D-02 0.13012111D+00 0.51141922D+04 0.22184400D+04 0.54965897D+04 0.12836575D+01  1  2 13  3  6  5        1 -.828344037651D+02
0.697061563925D-02 0.000000000000D+00 0.000000000000D+00 0.296168583595D-02 0.403533295359D-03  6 21 1 -13 13 1 21 4 0.36416604D-02 0.13012111D+00 0.51141922D+04 0.22184400D+04 0.54965897D+04 0.12836575D+01  1  2  1  3  6  5        1 0.190729936771D+03
  </mgrwgt>
  </event>
  <event npLO=' -1 ' npNLO=' 1 '>
  6     66 0.11644275E+02 0.11571339E+02 0.75467711E-02 0.13657336E+00
       21 -1    0    0  501  502 0.00000000E+00 0.00000000E+00 0.12297117E+02 0.12297117E+02 0.00000000E+00 0.0000E+00 0.9000E+01
        1 -1    0    0  502    0 0.00000000E+00 0.00000000E+00 -.26419567E+03 0.26419567E+03 0.00000000E+00 0.0000E+00 0.9000E+01
       23  2    1    2    0    0 -.57855732E+01 0.10021129E+02 -.24738450E+03 0.26407214E+03 0.91657562E+02 0.0000E+00 0.0000E+00
      -13  1    3    3    0    0 -.17319760E+02 0.21979693E+02 -.24579373E+03 0.24738156E+03 0.00000000E+00 0.0000E+00 0.9000E+01
       13  1    3    3    0    0 0.11534187E+02 -.11958564E+02 -.15907682E+01 0.16690574E+02 0.00000000E+00 0.0000E+00 0.9000E+01
        1  1    1    2  501    0 0.57855732E+01 -.10021129E+02 -.45140588E+01 0.12420652E+02 0.00000000E+00 0.0000E+00 0.9000E+01
#aMCatNLO 1  0  0  1  1 0.44728750D+02 0.00000000D+00  -5  6  0 0.00000000D+00 0.00000000D+00 0.00000000D+00 0.00000000D+00 0.00000000D+00
  <mgrwgt>
 0.2969674252D+03   16    2    0
 0.569986414961291D+02 0.000000000000000D+00 0.000000000000000D+00 0.569986414961291D+02
 0.569986414961291D+02 0.000000000000000D+00 0.000000000000000D+00 -.569986414961291D+02
 0.568797193249599D+02 -.173197596951216D+02 0.219796929726035D+02 -.495199100506002D+02
 0.369667683208116D+02 0.115341865186457D+02 -.119585642462893D+02 0.330226777019221D+02
 0.201507953464867D+02 0.578557317647591D+01 -.100211287263142D+02 0.164972323486781D+02
 0.000000000000000D+00 0.000000000000000D+00 -.000000000000000D+00 0.000000000000000D+00
 0.901387975576958D+02 0.000000000000000D+00 0.000000000000000D+00 0.901387975576958D+02
 0.711518924062199D+02 0.000000000000000D+00 0.000000000000000D+00 -.711518924062199D+02
 0.668914255044070D+02 -.362997739173359D+02 0.265436946965263D+02 -.495199100506002D+02
 0.343206458323589D+02 0.602429069384163D+00 -.932987497030656D+01 0.330226777019221D+02
 0.186013061125728D+02 -.156970522603827D+00 -.859216353326688D+01 0.164972323486781D+02
 0.414773125145769D+02 0.358543153705555D+02 -.862165619295284D+01 0.189869051514759D+02
0.589121022496D-03 0.000000000000D+00 0.000000000000D+00 0.469099528364D-02 0.000000000000D+00  6 21 1 -13 13 1 21 2 0.18918642D-02 0.40645488D-01 0.78875364D+03 0.13389588D+03 0.27017347D+04 0.14712653D+01  1  2  2  1  6  1       21 0.155129004640D+03
0.348912866204D-04 0.286016688350D-04 0.129783602670D-05 0.469099528364D-02 0.000000000000D+00  6 21 1 -13 13 1 21 4 0.18918642D-02 0.40645488D-01 0.78875364D+03 0.13389588D+03 0.27017347D+04 0.14712653D+01  1  2  3  1  6  1       21 -.811260355856D+01
0.383231899953D-04 0.000000000000D+00 0.000000000000D+00 0.469099528364D-02 0.000000000000D+00  6 21 1 -13 13 1 21 4 0.18918642D-02 0.40645488D-01 0.78875364D+03 0.13389588D+03 0.27017347D+04 0.14712653D+01  1  2 15  1  6  1       21 0.218439971980D+02
-.288206646365D-04 0.000000000000D+00 0.000000000000D+00 0.469099528364D-02 0.000000000000D+00  6 21 1 -13 13 1 21 4 0.18918642D-02 0.40645488D-01 0.78875364D+03 0.13389588D+03 0.27017347D+04 0.14712653D+01  1  2  4  1  6  1       21 -.164276125667D+02
-.127837729885D-03 0.000000000000D+00 -.645750606643D-03 0.469099528364D-02 0.000000000000D+00  6 21 1 -13 13 1 21 4 0.37306840D-02 0.40645488D-01 0.78875364D+03 0.13389588D+03 0.27017347D+04 0.14712653D+01  1  2  5  1  6  1       21 -.189028224521D+03
0.255998179542D-03 0.000000000000D+00 0.295179881719D-03 0.469099528364D-02 0.000000000000D+00  6 21 1 -13 13 1 21 4 0.18918642D-02 0.40645488D-01 0.78875364D+03 0.13389588D+03 0.27017347D+04 0.14712653D+01  1  2  6  1  6  1       21 0.353067114944D+03
0.122580924169D-06 0.000000000000D+00 -.156268912672D-03 0.469099528364D-02 0.000000000000D+00  6 -1 1 -13 13 1 -1 4 0.37306840D-02 0.40645488D-01 0.78875364D+03 0.13389588D+03 0.27017347D+04 0.14712653D+01  1  2  5  4  6  1       21 -.237433320986D+01
0.122580924169D-06 0.000000000000D+00 -.156268912672D-03 0.469099528364D-02 0.000000000000D+00  6 1 1 -13 13 1 1 4 0.37306840D-02 0.40645488D-01 0.78875364D+03 0.13389588D+03 0.27017347D+04 0.14712653D+01  1  2  5  5  6  1       21 -.259249123667D+01
0.122580924169D-06 0.000000000000D+00 -.156268912672D-03 0.469099528364D-02 0.000000000000D+00  6 -2 1 -13 13 1 -2 4 0.37306840D-02 0.40645488D-01 0.78875364D+03 0.13389588D+03 0.27017347D+04 0.14712653D+01  1  2  5  6  6  1       21 -.235785090143D+01
0.122580924169D-06 0.000000000000D+00 -.156268912672D-03 0.469099528364D-02 0.000000000000D+00  6 -4 1 -13 13 1 -4 4 0.37306840D-02 0.40645488D-01 0.78875364D+03 0.13389588D+03 0.27017347D+04 0.14712653D+01  1  2  5  6  6  1       21 -.156049829620D+01
0.122580924169D-06 0.000000000000D+00 -.156268912672D-03 0.469099528364D-02 0.000000000000D+00  6 2 1 -13 13 1 2 4 0.37306840D-02 0.40645488D-01 0.78875364D+03 0.13389588D+03 0.27017347D+04 0.14712653D+01  1  2  5  7  6  1       21 -.274026422201D+01
0.122580924169D-06 0.000000000000D+00 -.156268912672D-03 0.469099528364D-02 0.000000000000D+00  6 4 1 -13 13 1 4 4 0.37306840D-02 0.40645488D-01 0.78875364D+03 0.13389588D+03 0.27017347D+04 0.14712653D+01  1  2  5  7  6  1       21 -.155985681419D+01
0.122580924169D-06 0.000000000000D+00 -.156268912672D-03 0.469099528364D-02 0.000000000000D+00  6 -3 1 -13 13 1 -3 4 0.37306840D-02 0.40645488D-01 0.78875364D+03 0.13389588D+03 0.27017347D+04 0.14712653D+01  1  2  5  8  6  1       21 -.213959933996D+01
0.122580924169D-06 0.000000000000D+00 -.156268912672D-03 0.469099528364D-02 0.000000000000D+00  6 -5 1 -13 13 1 -5 4 0.37306840D-02 0.40645488D-01 0.78875364D+03 0.13389588D+03 0.27017347D+04 0.14712653D+01  1  2  5  8  6  1       21 -.102155837841D+01
0.122580924169D-06 0.000000000000D+00 -.156268912672D-03 0.469099528364D-02 0.000000000000D+00  6 3 1 -13 13 1 3 4 0.37306840D-02 0.40645488D-01 0.78875364D+03 0.13389588D+03 0.27017347D+04 0.14712653D+01  1  2  5  9  6  1       21 -.213645228730D+01
0.122580924169D-06 0.000000000000D+00 -.156268912672D-03 0.469099528364D-02 0.000000000000D+00  6 5 1 -13 13 1 5 4 0.37306840D-02 0.40645488D-01 0.78875364D+03 0.13389588D+03 0.27017347D+04 0.14712653D+01  1  2  5  9  6  1       21 -.102134620656D+01
  </mgrwgt>
  </event>
  <event npLO=' -1 ' npNLO=' 1 '>
  6     66 -.11644275E+02 0.28394247E+02 0.75467711E-02 0.14340838E+00
       21 -1    0    0  501  502 0.00000000E+00 0.00000000E+00 0.97924985E+01 0.97924985E+01 0.00000000E+00 0.0000E+00 0.9000E+01
        1 -1    0    0  502    0 0.00000000E+00 0.00000000E+00 -.41125574E+03 0.41125574E+03 0.00000000E+00 0.0000E+00 0.9000E+01
       23  2    1    2    0    0 0.10963723E+02 0.26192175E+02 -.34145600E+03 0.35466223E+03 0.91579819E+02 0.0000E+00 0.0000E+00
      -13  1    3    3    0    0 -.26812868E+02 -.19509084E+02 -.80641067E+02 0.87192407E+02 0.00000000E+00 0.0000E+00 0.9000E+01
       13  1    3    3    0    0 0.37776591E+02 0.45701259E+02 -.26081493E+03 0.26746982E+03 0.00000000E+00 0.0000E+00 0.9000E+01
        1  1    1    2  501    0 -.10963723E+02 -.26192175E+02 -.60007243E+02 0.66386011E+02 0.00000000E+00 0.0000E+00 0.9000E+01
#aMCatNLO 1  0  0  1  1 0.44728750D+02 0.00000000D+00  -5  6  0 0.00000000D+00 0.00000000D+00 0.00000000D+00 0.00000000D+00 0.00000000D+00
  <mgrwgt>
 -.4873583631D+00    1    2    0
 0.634603910581001D+02 0.000000000000000D+00 0.000000000000000D+00 0.634603910581001D+02
 0.634603910581001D+02 0.000000000000000D+00 0.000000000000000D+00 -.634603910581001D+02
 0.341771095896018D+02 -.268128681639735D+02 -.195090838306016D+02 0.827892316739262D+01
 0.623230372016789D+02 0.377765911380329D+02 0.457012593094302D+02 -.191959637831489D+02
 0.304206353249195D+02 -.109637229740594D+02 -.261921754788286D+02 0.109170406157563D+02
 0.000000000000000D+00 -.000000000000000D+00 -.000000000000000D+00 0.000000000000000D+00
 0.686341224081918D+02 0.000000000000000D+00 0.000000000000000D+00 0.686341224081918D+02
 0.635437753038609D+02 0.000000000000000D+00 0.000000000000000D+00 -.635437753038609D+02
 0.338454574257087D+02 -.265629376848356D+02 -.192713455963877D+02 0.827892316739262D+01
 0.629233085301393D+02 0.382367748766438D+02 0.461389941139596D+02 -.191959637831489D+02
 0.301585438430263D+02 -.107411412053971D+02 -.259804518153821D+02 0.109170406157563D+02
 0.525058791317834D+01 -.932695986411139D+00 -.887196702189874D+00 0.509034710433095D+01
-.148242695432D-05 0.000000000000D+00 0.000000000000D+00 0.103805383478D-02 0.000000000000D+00  6 21 1 -13 13 1 21 4 0.15065382D-02 0.63270114D-01 0.36509757D+04 0.80623328D+03 0.38610617D+04 0.13424317D+01  1  2 14  1  6  1       21 -.487358363128D+00
  </mgrwgt>
  </event>
  <event npLO=' -1 ' npNLO=' 1 '>
  6     66 0.11644275E+02 0.21411877E+02 0.75467711E-02 0.15294670E+00
       21 -1    0    0  501  502 0.00000000E+00 0.00000000E+00 0.84432133E+01 0.84432133E+01 0.00000000E+00 0.0000E+00 0.9000E+01
        3 -1    0    0  502    0 0.00000000E+00 0.00000000E+00 -.42382043E+03 0.42382043E+03 0.00000000E+00 0.0000E+00 0.9000E+01
       23  2    1    2    0    0 0.21366406E+02 0.13946996E+01 -.26675712E+03 0.28210905E+03 0.89261901E+02 0.0000E+00 0.0000E+00
      -13  1    3    3    0    0 0.47817240E+02 0.77785596E+00 -.77906021E+02 0.91413574E+02 0.00000000E+00 0.0000E+00 0.9000E+01
       13  1    3    3    0    0 -.26450834E+02 0.61684360E+00 -.18885110E+03 0.19069548E+03 0.00000000E+00 0.0000E+00 0.9000E+01
        3  1    1    2  501    0 -.21366406E+02 -.13946996E+01 -.14862009E+03 0.15015459E+03 0.00000000E+00 0.0000E+00 0.9000E+01
#aMCatNLO 1  0  0  1  2 0.10946954D+02 0.00000000D+00  -5  6  0 0.00000000D+00 0.00000000D+00 0.00000000D+00 0.00000000D+00 0.00000000D+00
  <mgrwgt>
 0.8555648993D+02   38    2    0
 0.598197814208538D+02 0.000000000000000D+00 0.000000000000000D+00 0.598197814208538D+02
 0.598197814208538D+02 0.000000000000000D+00 0.000000000000000D+00 -.598197814208538D+02
 0.597994370130735D+02 0.478172397368035D+02 0.777855957702196D+00 0.359009636520063D+02
 0.333190578338944D+02 -.264508340577986D+02 0.616843597439661D+00 -.202517282364123D+02
 0.265210679947397D+02 -.213664056790049D+02 -.139469955514186D+01 -.156492354155940D+02
 0.000000000000000D+00 -.000000000000000D+00 0.000000000000000D+00 0.000000000000000D+00
 0.669735372289143D+02 0.000000000000000D+00 0.000000000000000D+00 0.669735372289143D+02
 0.629500606414707D+02 0.000000000000000D+00 0.000000000000000D+00 -.629500606414707D+02
 0.633157327901446D+02 0.521444935545573D+02 -.977046339255918D+00 0.359009636520063D+02
 0.315353813000777D+02 -.241713292673708D+02 -.307601411132812D+00 -.202517282364123D+02
 0.251331629300086D+02 -.195508620028721D+02 -.213098679449939D+01 -.156492354155940D+02
 0.993932085015405D+01 -.842230228431438D+01 0.341563454488812D+01 0.402347658744359D+01
0.265115814226D-03 0.000000000000D+00 0.000000000000D+00 0.273054302040D-03 0.000000000000D+00  6 21 3 -13 13 3 21 2 0.12989559D-02 0.65203143D-01 0.22893100D+04 0.45846894D+03 0.32038985D+04 0.13790851D+01  1  2  2  1  6  1       21 0.148824935335D+02
-.264830357212D-04 0.128713022145D-04 0.584051225151D-06 0.273054302040D-03 0.000000000000D+00  6 21 3 -13 13 3 21 4 0.12989559D-02 0.65203143D-01 0.22893100D+04 0.45846894D+03 0.32038985D+04 0.13790851D+01  1  2  3  1  6  1       21 -.501630156721D+01
0.155079674416D-04 0.000000000000D+00 0.000000000000D+00 0.273054302040D-03 0.000000000000D+00  6 21 3 -13 13 3 21 4 0.12989559D-02 0.65203143D-01 0.22893100D+04 0.45846894D+03 0.32038985D+04 0.13790851D+01  1  2 15  1  6  1       21 0.165568265709D+01
0.367366128357D-03 0.000000000000D+00 0.000000000000D+00 0.275941384309D-03 0.000000000000D+00  6 21 3 -13 13 3 21 4 0.15303972D-02 0.65203143D-01 0.27605639D+04 0.41217413D+03 0.31272506D+04 0.13863567D+01  1  2 12  1  6  1       21 0.314138240052D+02
0.367366128357D-03 0.000000000000D+00 0.000000000000D+00 0.275941384309D-03 0.000000000000D+00  6 21 3 -13 13 3 21 4 0.15303972D-02 0.65203143D-01 0.27605639D+04 0.41217413D+03 0.31272506D+04 0.13863567D+01  1  2 12  1  6  1       21 0.314138240052D+02
-.279334401440D-03 0.000000000000D+00 0.000000000000D+00 0.273054302040D-03 0.000000000000D+00  6 21 3 -13 13 3 21 4 0.12989559D-02 0.65203143D-01 0.22893100D+04 0.45846894D+03 0.32038985D+04 0.13790851D+01  1  2  4  1  6  1       21 -.298226782933D+02
-.186244922284D-02 0.000000000000D+00 -.456608600667D-03 0.273054302040D-03 0.000000000000D+00  6 21 3 -13 13 3 21 4 0.15305676D-02 0.65203143D-01 0.22893100D+04 0.45846894D+03 0.32038985D+04 0.13790851D+01  1  2  5  1  6  1       21 -.169141977865D+03
0.183825466539D-02 0.000000000000D+00 0.432930734201D-03 0.273054302040D-03 0.000000000000D+00  6 21 3 -13 13 3 21 4 0.12989559D-02 0.65203143D-01 0.22893100D+04 0.45846894D+03 0.32038985D+04 0.13790851D+01  1  2  6  1  6  1       21 0.211793990100D+03
0.166214424905D-04 0.000000000000D+00 0.000000000000D+00 0.275941384309D-03 0.000000000000D+00  6 -3 3 -13 13 3 -3 4 0.15303972D-02 0.65203143D-01 0.27605639D+04 0.41217413D+03 0.31272506D+04 0.13863567D+01  1  2 12  4  6  1       21 0.716679764784D-01
0.166214424905D-04 0.000000000000D+00 0.000000000000D+00 0.275941384309D-03 0.000000000000D+00  6 -3 3 -13 13 3 -3 4 0.15303972D-02 0.65203143D-01 0.27605639D+04 0.41217413D+03 0.31272506D+04 0.13863567D+01  1  2 12  4  6  1       21 0.716679764784D-01
-.692073134429D-04 0.000000000000D+00 -.206758305257D-04 0.273054302040D-03 0.000000000000D+00  6 -3 3 -13 13 3 -3 4 0.15305676D-02 0.65203143D-01 0.22893100D+04 0.45846894D+03 0.32038985D+04 0.13790851D+01  1  2  5  4  6  1       21 -.322196825067D+00
0.166214424905D-04 0.000000000000D+00 0.000000000000D+00 0.275941384309D-03 0.000000000000D+00  6 3 3 -13 13 3 3 4 0.15303972D-02 0.65203143D-01 0.27605639D+04 0.41217413D+03 0.31272506D+04 0.13863567D+01  1  2 12  5  6  1       21 0.715220784089D-01
0.166214424905D-04 0.000000000000D+00 0.000000000000D+00 0.275941384309D-03 0.000000000000D+00  6 3 3 -13 13 3 3 4 0.15303972D-02 0.65203143D-01 0.27605639D+04 0.41217413D+03 0.31272506D+04 0.13863567D+01  1  2 12  5  6  1       21 0.715220784089D-01
-.692073134429D-04 0.000000000000D+00 -.206758305257D-04 0.273054302040D-03 0.000000000000D+00  6 3 3 -13 13 3 3 4 0.15305676D-02 0.65203143D-01 0.22893100D+04 0.45846894D+03 0.32038985D+04 0.13790851D+01  1  2  5  5  6  1       21 -.321542845964D+00
0.166214424905D-04 0.000000000000D+00 0.000000000000D+00 0.275941384309D-03 0.000000000000D+00  6 -2 3 -13 13 3 -2 4 0.15303972D-02 0.65203143D-01 0.27605639D+04 0.41217413D+03 0.31272506D+04 0.13863567D+01  1  2 12  6  6  1       21 0.773240402462D-01
0.166214424905D-04 0.000000000000D+00 0.000000000000D+00 0.275941384309D-03 0.000000000000D+00  6 -4 3 -13 13 3 -4 4 0.15303972D-02 0.65203143D-01 0.27605639D+04 0.41217413D+03 0.31272506D+04 0.13863567D+01  1  2 12  6  6  1       21 0.560768693719D-01
0.166214424905D-04 0.000000000000D+00 0.000000000000D+00 0.275941384309D-03 0.000000000000D+00  6 -2 3 -13 13 3 -2 4 0.15303972D-02 0.65203143D-01 0.27605639D+04 0.41217413D+03 0.31272506D+04 0.13863567D+01  1  2 12  6  6  1       21 0.773240402462D-01
0.166214424905D-04 0.000000000000D+00 0.000000000000D+00 0.275941384309D-03 0.000000000000D+00  6 -4 3 -13 13 3 -4 4 0.15303972D-02 0.65203143D-01 0.27605639D+04 0.41217413D+03 0.31272506D+04 0.13863567D+01  1  2 12  6  6  1       21 0.560768693719D-01
-.692073134429D-04 0.000000000000D+00 -.206758305257D-04 0.273054302040D-03 0.000000000000D+00  6 -2 3 -13 13 3 -2 4 0.15305676D-02 0.65203143D-01 0.22893100D+04 0.45846894D+03 0.32038985D+04 0.13790851D+01  1  2  5  6  6  1       21 -.347566313149D+00
-.692073134429D-04 0.000000000000D+00 -.206758305257D-04 0.273054302040D-03 0.000000000000D+00  6 -4 3 -13 13 3 -4 4 0.15305676D-02 0.65203143D-01 0.22893100D+04 0.45846894D+03 0.32038985D+04 0.13790851D+01  1  2  5  6  6  1       21 -.252268589237D+00
0.166214424905D-04 0.000000000000D+00 0.000000000000D+00 0.275941384309D-03 0.000000000000D+00  6 2 3 -13 13 3 2 4 0.15303972D-02 0.65203143D-01 0.27605639D+04 0.41217413D+03 0.31272506D+04 0.13863567D+01  1  2 12  7  6  1       21 0.831893540055D-01
0.166214424905D-04 0.000000000000D+00 0.000000000000D+00 0.275941384309D-03 0.000000000000D+00  6 4 3 -13 13 3 4 4 0.15303972D-02 0.65203143D-01 0.27605639D+04 0.41217413D+03 0.31272506D+04 0.13863567D+01  1  2 12  7  6  1       21 0.560793019065D-01
0.166214424905D-04 0.000000000000D+00 0.000000000000D+00 0.275941384309D-03 0.000000000000D+00  6 2 3 -13 13 3 2 4 0.15303972D-02 0.65203143D-01 0.27605639D+04 0.41217413D+03 0.31272506D+04 0.13863567D+01  1  2 12  7  6  1       21 0.831893540055D-01
0.166214424905D-04 0.000000000000D+00 0.000000000000D+00 0.275941384309D-03 0.000000000000D+00  6 4 3 -13 13 3 4 4 0.15303972D-02 0.65203143D-01 0.27605639D+04 0.41217413D+03 0.31272506D+04 0.13863567D+01  1  2 12  7  6  1       21 0.560793019065D-01
-.692073134429D-04 0.000000000000D+00 -.206758305257D-04 0.273054302040D-03 0.000000000000D+00  6 2 3 -13 13 3 2 4 0.15305676D-02 0.65203143D-01 0.22893100D+04 0.45846894D+03 0.32038985D+04 0.13790851D+01  1  2  5  7  6  1       21 -.373906843896D+00
-.692073134429D-04 0.000000000000D+00 -.206758305257D-04 0.273054302040D-03 0.000000000000D+00  6 4 3 -13 13 3 4 4 0.15305676D-02 0.65203143D-01 0.22893100D+04 0.45846894D+03 0.32038985D+04 0.13790851D+01  1  2  5  7  6  1       21 -.252279389156D+00
0.166214424905D-04 0.000000000000D+00 0.000000000000D+00 0.275941384309D-03 0.000000000000D+00  6 -1 3 -13 13 3 -1 4 0.15303972D-02 0.65203143D-01 0.27605639D+04 0.41217413D+03 0.31272506D+04 0.13863567D+01  1  2 12  8  6  1       21 0.771503273624D-01
0.166214424905D-04 0.000000000000D+00 0.000000000000D+00 0.275941384309D-03 0.000000000000D+00  6 -5 3 -13 13 3 -5 4 0.15303972D-02 0.65203143D-01 0.27605639D+04 0.41217413D+03 0.31272506D+04 0.13863567D+01  1  2 12  8  6  1       21 0.380236656424D-01
0.166214424905D-04 0.000000000000D+00 0.000000000000D+00 0.275941384309D-03 0.000000000000D+00  6 -1 3 -13 13 3 -1 4 0.15303972D-02 0.65203143D-01 0.27605639D+04 0.41217413D+03 0.31272506D+04 0.13863567D+01  1  2 12  8  6  1       21 0.771503273624D-01
0.166214424905D-04 0.000000000000D+00 0.000000000000D+00 0.275941384309D-03 0.000000000000D+00  6 -5 3 -13 13 3 -5 4 0.15303972D-02 0.65203143D-01 0.27605639D+04 0.41217413D+03 0.31272506D+04 0.13863567D+01  1  2 12  8  6  1       21 0.380236656424D-01
-.692073134429D-04 0.000000000000D+00 -.206758305257D-04 0.273054302040D-03 0.000000000000D+00  6 -1 3 -13 13 3 -1 4 0.15305676D-02 0.65203143D-01 0.22893100D+04 0.45846894D+03 0.32038985D+04 0.13790851D+01  1  2  5  8  6  1       21 -.346791598226D+00
-.692073134429D-04 0.000000000000D+00 -.206758305257D-04 0.273054302040D-03 0.000000000000D+00  6 -5 3 -13 13 3 -5 4 0.15305676D-02 0.65203143D-01 0.22893100D+04 0.45846894D+03 0.32038985D+04 0.13790851D+01  1  2  5  8  6  1       21 -.171319388345D+00
0.166214424905D-04 0.000000000000D+00 0.000000000000D+00 0.275941384309D-03 0.000000000000D+00  6 1 3 -13 13 3 1 4 0.15303972D-02 0.65203143D-01 0.27605639D+04 0.41217413D+03 0.31272506D+04 0.13863567D+01  1  2 12  9  6  1       21 0.806831635667D-01
0.166214424905D-04 0.000000000000D+00 0.000000000000D+00 0.275941384309D-03 0.000000000000D+00  6 5 3 -13 13 3 5 4 0.15303972D-02 0.65203143D-01 0.27605639D+04 0.41217413D+03 0.31272506D+04 0.13863567D+01  1  2 12  9  6  1       21 0.380244669956D-01
0.166214424905D-04 0.000000000000D+00 0.000000000000D+00 0.275941384309D-03 0.000000000000D+00  6 1 3 -13 13 3 1 4 0.15303972D-02 0.65203143D-01 0.27605639D+04 0.41217413D+03 0.31272506D+04 0.13863567D+01  1  2 12  9  6  1       21 0.806831635667D-01
0.166214424905D-04 0.000000000000D+00 0.000000000000D+00 0.275941384309D-03 0.000000000000D+00  6 5 3 -13 13 3 5 4 0.15303972D-02 0.65203143D-01 0.27605639D+04 0.41217413D+03 0.31272506D+04 0.13863567D+01  1  2 12  9  6  1       21 0.380244669956D-01
-.692073134429D-04 0.000000000000D+00 -.206758305257D-04 0.273054302040D-03 0.000000000000D+00  6 1 3 -13 13 3 1 4 0.15305676D-02 0.65203143D-01 0.22893100D+04 0.45846894D+03 0.32038985D+04 0.13790851D+01  1  2  5  9  6  1       21 -.362654388257D+00
-.692073134429D-04 0.000000000000D+00 -.206758305257D-04 0.273054302040D-03 0.000000000000D+00  6 5 3 -13 13 3 5 4 0.15305676D-02 0.65203143D-01 0.22893100D+04 0.45846894D+03 0.32038985D+04 0.13790851D+01  1  2  5  9  6  1       21 -.171322952320D+00
  </mgrwgt>
  </event>
  <event npLO=' -1 ' npNLO=' 1 '>
  7     66 0.11644275E+02 0.81904253E+01 0.75467711E-02 0.17441205E+00
       21 -1    0    0  501  503 0.00000000E+00 0.00000000E+00 0.50141546E+03 0.50141546E+03 0.00000000E+00 0.0000E+00 0.9000E+01
        3 -1    0    0  502    0 0.00000000E+00 0.00000000E+00 -.39367421E+03 0.39367421E+03 0.00000000E+00 0.0000E+00 0.9000E+01
       23  2    1    2    0    0 0.56928464E+01 -.11446757E+01 -.38772998E+03 0.39822743E+03 0.90646751E+02 0.0000E+00 0.0000E+00
      -13  1    3    3    0    0 0.22458065E+02 0.13856723E+02 -.30672920E+02 0.40462346E+02 0.00000000E+00 0.0000E+00 0.9000E+01
       13  1    3    3    0    0 -.16765218E+02 -.15001399E+02 -.35705706E+03 0.35776509E+03 0.00000000E+00 0.0000E+00 0.9000E+01
        3  1    1    2  501    0 0.52454042E+01 0.17475604E+01 0.11429167E+02 0.12696224E+02 0.00000000E+00 0.0000E+00 0.9000E+01
       21  1    1    2  502  503 -.10938251E+02 -.60288473E+00 0.48404207E+03 0.48416602E+03 0.00000000E+00 0.0000E+00 0.9000E+01
#aMCatNLO 2  0  0  1  5 0.50966577D+01 0.00000000D+00  -5  6  0 0.00000000D+00 0.00000000D+00 0.00000000D+00 0.00000000D+00 0.00000000D+00
  <mgrwgt>
 0.1267020298D+05    1    2    0
 0.823649542147682D+02 0.000000000000000D+00 0.000000000000000D+00 0.823649542147682D+02
 0.823649542147682D+02 0.000000000000000D+00 0.000000000000000D+00 -.823649542147682D+02
 0.293248790149454D+02 0.204641268368034D+02 0.137468227633774D+02 0.158805826706926D+02
 0.779803960605374D+02 -.218931375381737D+02 -.152840346057512D+02 -.732668477871341D+02
 0.574246333540536D+02 0.142901070137039D+01 0.153721184237380D+01 0.573862651164415D+02
 0.000000000000000D+00 -.000000000000000D+00 -.000000000000000D+00 0.000000000000000D+00
 0.239092324443064D+04 0.000000000000000D+00 0.000000000000000D+00 0.239092324443064D+04
 0.825598800316521D+02 0.000000000000000D+00 0.000000000000000D+00 -.825598800316521D+02
 0.307988042671247D+02 0.224580647022192D+02 0.138567228504755D+02 0.158805826706926D+02
 0.766429741520404D+02 -.167652182904681D+02 -.150013985308113D+02 -.732668477871341D+02
 0.576519874437157D+02 0.524540416077126D+01 0.174756040983103D+01 0.573862651164415D+02
 0.230838935859942D+04 -.109382505725224D+02 -.602884729495248D+00 0.230836336439899D+04
0.589334336748D+02 0.000000000000D+00 0.000000000000D+00 0.361568811418D+00 0.474124825775D+02  6 21 3 -13 13 3 21 4 0.77140841D-01 0.60565263D-01 0.10682956D+04 0.34319963D+02 0.23374413D+04 0.15998972D+01  1  2  1  1  6  1       21 0.126702029813D+05
  </mgrwgt>
  </event>
  <event npLO=' -1 ' npNLO=' 1 '>
  6     66 -.11644275E+02 0.11745385E+02 0.75467711E-02 0.14301168E+00
       21 -1    0    0  501  502 0.00000000E+00 0.00000000E+00 0.67340302E+01 0.67340302E+01 0.00000000E+00 0.0000E+00 0.9000E+01
        1 -1    0    0  502    0 0.00000000E+00 0.00000000E+00 -.98035293E+03 0.98035293E+03 0.00000000E+00 0.0000E+00 0.9000E+01
       23  2    1    2    0    0 -.63081734E+01 -.99076241E+01 -.97052058E+03 0.97493980E+03 0.91975306E+02 0.0000E+00 0.0000E+00
      -11  1    3    3    0    0 -.43827553E+02 -.21794000E+02 -.38518102E+03 0.38827858E+03 0.00000000E+00 0.0000E+00 0.9000E+01
       11  1    3    3    0    0 0.37519380E+02 0.11886376E+02 -.58533956E+03 0.58666122E+03 0.00000000E+00 0.0000E+00 0.9000E+01
        1  1    1    2  501    0 0.63081734E+01 0.99076241E+01 -.30983238E+01 0.12147167E+02 0.00000000E+00 0.0000E+00 0.9000E+01
#aMCatNLO 1  0  0  1  1 0.28841370D+02 0.00000000D+00  -5  6  0 0.00000000D+00 0.00000000D+00 0.00000000D+00 0.00000000D+00 0.00000000D+00
  <mgrwgt>
 -.7987291891D+04   14    2    0
 0.812510076167018D+02 0.000000000000000D+00 0.000000000000000D+00 0.812510076167018D+02
 0.812510076167018D+02 0.000000000000000D+00 0.000000000000000D+00 -.812510076167018D+02
 0.507390406685663D+02 -.438275529487917D+02 -.217939997134589D+02 -.133647830875413D+02
 0.565407422506805D+02 0.375193795730532D+02 0.118863755907143D+02 -.405939129184107D+02
 0.552222323141568D+02 0.630817337573851D+01 0.990762412274460D+01 0.539586960059520D+02
 0.000000000000000D+00 -.000000000000000D+00 0.000000000000000D+00 0.000000000000000D+00
 0.237964513777565D+04 0.000000000000000D+00 0.000000000000000D+00 0.237964513777565D+04
 0.826097988546110D+02 0.000000000000000D+00 0.000000000000000D+00 -.826097988546110D+02
 0.523040639735949D+02 -.405287776005247D+02 -.302409634003959D+02 -.133647830875413D+02
 0.578803927467449D+02 0.411824060391231D+02 0.250669729299825D+01 -.405939129184107D+02
 0.548542883689870D+02 0.983211332410834D+01 0.884095802010759D+00 0.539586960059520D+02
 0.229721619154093D+04 -.104857417627068D+02 0.268501703053869D+02 0.229703533892103D+04
0.520684839796D-04 0.000000000000D+00 0.000000000000D+00 0.125684819243D-01 0.000000000000D+00  6 21 1 -11 11 1 21 2 0.10360046D-02 0.15082353D+00 0.25024925D+04 0.13795407D+03 0.27283704D+04 0.14687964D+01  1  2  2  1  6  1       21 0.569785667128D+01
0.131157096521D-04 0.252791103807D-05 0.114707083577D-06 0.125684819243D-01 0.000000000000D+00  6 21 1 -11 11 1 21 4 0.10360046D-02 0.15082353D+00 0.25024925D+04 0.13795407D+03 0.27283704D+04 0.14687964D+01  1  2  3  1  6  1       21 0.136913093062D+01
0.409967389487D-05 0.000000000000D+00 0.000000000000D+00 0.125684819243D-01 0.000000000000D+00  6 21 1 -11 11 1 21 4 0.10360046D-02 0.15082353D+00 0.25024925D+04 0.13795407D+03 0.27283704D+04 0.14687964D+01  1  2 15  1  6  1       21 0.967852335909D+00
-.554433572832D+01 0.000000000000D+00 -.107865300166D-01 0.125684819243D-01 0.000000000000D+00  6 21 1 -11 11 1 21 4 0.30479142D-01 0.15082353D+00 0.25024925D+04 0.13795407D+03 0.27283704D+04 0.14687964D+01  1  2  5  1  6  1       21 -.600791614076D+04
-.246039849082D+01 0.000000000000D+00 -.478542646853D-02 0.125684819243D-01 0.000000000000D+00  6 -1 1 -11 11 1 -1 4 0.30479142D-01 0.15082353D+00 0.25024925D+04 0.13795407D+03 0.27283704D+04 0.14687964D+01  1  2  5  4  6  1       21 -.242256924663D+03
-.246039849082D+01 0.000000000000D+00 -.478542646853D-02 0.125684819243D-01 0.000000000000D+00  6 1 1 -11 11 1 1 4 0.30479142D-01 0.15082353D+00 0.25024925D+04 0.13795407D+03 0.27283704D+04 0.14687964D+01  1  2  5  5  6  1       21 -.387243464143D+03
-.246039849082D+01 0.000000000000D+00 -.478542646853D-02 0.125684819243D-01 0.000000000000D+00  6 -2 1 -11 11 1 -2 4 0.30479142D-01 0.15082353D+00 0.25024925D+04 0.13795407D+03 0.27283704D+04 0.14687964D+01  1  2  5  6  6  1       21 -.216349607501D+03
-.246039849082D+01 0.000000000000D+00 -.478542646853D-02 0.125684819243D-01 0.000000000000D+00  6 -4 1 -11 11 1 -4 4 0.30479142D-01 0.15082353D+00 0.25024925D+04 0.13795407D+03 0.27283704D+04 0.14687964D+01  1  2  5  6  6  1       21 -.982511821406D+02
-.246039849082D+01 0.000000000000D+00 -.478542646853D-02 0.125684819243D-01 0.000000000000D+00  6 2 1 -11 11 1 2 4 0.30479142D-01 0.15082353D+00 0.25024925D+04 0.13795407D+03 0.27283704D+04 0.14687964D+01  1  2  5  7  6  1       21 -.494409078493D+03
-.246039849082D+01 0.000000000000D+00 -.478542646853D-02 0.125684819243D-01 0.000000000000D+00  6 4 1 -11 11 1 4 4 0.30479142D-01 0.15082353D+00 0.25024925D+04 0.13795407D+03 0.27283704D+04 0.14687964D+01  1  2  5  7  6  1       21 -.977813686131D+02
-.246039849082D+01 0.000000000000D+00 -.478542646853D-02 0.125684819243D-01 0.000000000000D+00  6 -3 1 -11 11 1 -3 4 0.30479142D-01 0.15082353D+00 0.25024925D+04 0.13795407D+03 0.27283704D+04 0.14687964D+01  1  2  5  8  6  1       21 -.164474425851D+03
-.246039849082D+01 0.000000000000D+00 -.478542646853D-02 0.125684819243D-01 0.000000000000D+00  6 -5 1 -11 11 1 -5 4 0.30479142D-01 0.15082353D+00 0.25024925D+04 0.13795407D+03 0.27283704D+04 0.14687964D+01  1  2  5  8  6  1       21 -.607707780700D+02
-.246039849082D+01 0.000000000000D+00 -.478542646853D-02 0.125684819243D-01 0.000000000000D+00  6 3 1 -11 11 1 3 4 0.30479142D-01 0.15082353D+00 0.25024925D+04 0.13795407D+03 0.27283704D+04 0.14687964D+01  1  2  5  9  6  1       21 -.165258215121D+03
-.246039849082D+01 0.000000000000D+00 -.478542646853D-02 0.125684819243D-01 0.000000000000D+00  6 5 1 -11 11 1 5 4 0.30479142D-01 0.15082353D+00 0.25024925D+04 0.13795407D+03 0.27283704D+04 0.14687964D+01  1  2  5  9  6  1       21 -.606155451743D+02
  </mgrwgt>
  </event>
  <event npLO=' -1 ' npNLO=' 1 '>
  6     66 0.11644275E+02 0.67132733E+02 0.75467711E-02 0.12397932E+00
       21 -1    0    0  501  502 0.00000000E+00 0.00000000E+00 0.30574306E+03 0.30574306E+03 0.00000000E+00 0.0000E+00 0.9000E+01
        1 -1    0    0  502    0 0.00000000E+00 0.00000000E+00 -.29839709E+02 0.29839709E+02 0.00000000E+00 0.0000E+00 0.9000E+01
       23  2    1    2    0    0 0.27318138E+02 -.61323105E+02 0.21942699E+03 0.24785374E+03 0.93682794E+02 0.0000E+00 0.0000E+00
      -13  1    3    3    0    0 0.48609806E+02 -.71850559E+02 0.19670125E+03 0.21498093E+03 0.00000000E+00 0.0000E+00 0.9000E+01
       13  1    3    3    0    0 -.21291668E+02 0.10527454E+02 0.22725740E+02 0.32872810E+02 0.00000000E+00 0.0000E+00 0.9000E+01
        1  1    1    2  501    0 -.27318138E+02 0.61323105E+02 0.56476355E+02 0.87729029E+02 0.00000000E+00 0.0000E+00 0.9000E+01
#aMCatNLO 1  0  0  2  1 0.47316019D+02 0.00000000D+00  -5  6  0 0.00000000D+00 0.00000000D+00 0.00000000D+00 0.00000000D+00 0.00000000D+00
  <mgrwgt>
 0.2134329639D+03    6    2    0
 0.955158829504029D+02 0.000000000000000D+00 0.000000000000000D+00 0.955158829504029D+02
 0.955158829504029D+02 0.000000000000000D+00 0.000000000000000D+00 -.955158829504029D+02
 0.935622399111030D+02 0.486098060127551D+02 -.718505587051936D+02 0.350496320998757D+02
 0.249248644551899D+02 -.212916676229665D+02 0.105274539997484D+02 -.755555889566690D+01
 0.725446615345128D+02 -.273181383897886D+02 0.613231047054452D+02 -.274940732042088D+02
 0.000000000000000D+00 -.000000000000000D+00 -.000000000000000D+00 0.000000000000000D+00
 0.119118011277292D+03 0.000000000000000D+00 0.000000000000000D+00 0.119118011277292D+03
 0.100899088361905D+03 0.000000000000000D+00 0.000000000000000D+00 -.100899088361905D+03
 0.984218222374512D+02 0.590623223346351D+02 -.704983720566898D+02 0.350496320998757D+02
 0.228988543135340D+02 -.186879191898477D+02 0.108642871372348D+02 -.755555889566690D+01
 0.708660459885604D+02 -.195101842068139D+02 0.623331783636175D+02 -.274940732042088D+02
 0.278303770996513D+02 -.208642189379735D+02 -.269909344416242D+01 0.182189229153862D+02
0.145394236002D-01 0.000000000000D+00 0.000000000000D+00 0.116452311237D-03 0.000000000000D+00  6 21 1 -13 13 1 21 2 0.47037393D-01 0.45907245D-02 0.78884588D+04 0.45068084D+04 0.83161482D+04 0.12469567D+01  1  2  2  2  6  2        1 0.215539868187D+03
-.174746550220D-02 0.705885145810D-03 0.320304097718D-04 0.116452311237D-03 0.000000000000D+00  6 21 1 -13 13 1 21 4 0.47037393D-01 0.45907245D-02 0.78884588D+04 0.45068084D+04 0.83161482D+04 0.12469567D+01  1  2  3  2  6  2        1 -.493499884747D+02
0.999059596555D-03 0.000000000000D+00 0.000000000000D+00 0.116452311237D-03 0.000000000000D+00  6 21 1 -13 13 1 21 4 0.47037393D-01 0.45907245D-02 0.78884588D+04 0.45068084D+04 0.83161482D+04 0.12469567D+01  1  2 15  2  6  2        1 0.230289725534D+02
0.166102355182D-01 0.000000000000D+00 0.000000000000D+00 0.116682156685D-03 0.000000000000D+00  6 21 1 -13 13 1 21 4 0.47037393D-01 0.60477623D-02 0.99939161D+04 0.43964111D+04 0.81973625D+04 0.12481867D+01  1  2 12  2  6  2        1 0.265079830470D+03
-.161145914202D-01 0.000000000000D+00 0.000000000000D+00 0.116452311237D-03 0.000000000000D+00  6 21 1 -13 13 1 21 4 0.47037393D-01 0.45907245D-02 0.78884588D+04 0.45068084D+04 0.83161482D+04 0.12469567D+01  1  2  4  2  6  2        1 -.371451798077D+03
0.603847998186D-03 0.000000000000D+00 0.000000000000D+00 0.116682165971D-03 0.000000000000D+00  6 21 21 -13 13 1 -1 4 0.47037393D-01 0.60477623D-02 0.99939161D+04 0.43964067D+04 0.81973595D+04 0.12481867D+01  1  2 12 10  6  2        1 0.130586079243D+03
  </mgrwgt>
  </event>
  <event npLO=' -1 ' npNLO=' 1 '>
  7     66 0.11644275E+02 0.96726495E+01 0.75467711E-02 0.16198104E+00
       21 -1    0    0  501  502 0.00000000E+00 0.00000000E+00 0.14852066E+03 0.14852066E+03 0.00000000E+00 0.0000E+00 0.9000E+01
       21 -1    0    0  502  503 0.00000000E+00 0.00000000E+00 -.39418483E+02 0.39418483E+02 0.00000000E+00 0.0000E+00 0.9000E+01
       23  2    1    2    0    0 -.26129773E+01 -.28538717E+01 0.95781064E+02 0.13264773E+03 0.91686622E+02 0.0000E+00 0.0000E+00
      -11  1    3    3    0    0 0.34671558E+02 0.25093833E+02 0.30990490E+02 0.52841535E+02 0.00000000E+00 0.0000E+00 0.9000E+01
       11  1    3    3    0    0 -.37284535E+02 -.27947705E+02 0.64790574E+02 0.79806198E+02 0.00000000E+00 0.0000E+00 0.9000E+01
        5  1    1    2  501    0 -.10608724E+02 -.55255851E+01 0.30072837E+02 0.32364373E+02 0.00000000E+00 0.0000E+00 0.9000E+01
       -5  1    1    2    0  503 0.13221701E+02 0.83794568E+01 -.16751725E+02 0.22927036E+02 0.00000000E+00 0.0000E+00 0.9000E+01
#aMCatNLO 2  0  0  2  1 0.22860082D+04 0.00000000D+00  -5  6  0 0.00000000D+00 0.00000000D+00 0.00000000D+00 0.00000000D+00 0.00000000D+00
  <mgrwgt>
 0.2451135184D+03    1    2    0
 0.527843776588404D+02 0.000000000000000D+00 0.000000000000000D+00 0.527843776588404D+02
 0.527843776588404D+02 0.000000000000000D+00 0.000000000000000D+00 -.527843776588404D+02
 0.519842125753928D+02 0.407215507597151D+02 0.289281094847835D+02 -.143971574431882D+02
 0.406151494420380D+02 -.318284557993043D+02 -.244898304682570D+02 0.606530867036816D+01
 0.129693933002499D+02 -.889309496041083D+01 -.443827901652655D+01 0.833184877282003D+01
 0.000000000000000D+00 0.000000000000000D+00 0.000000000000000D+00 -.000000000000000D+00
 0.544943869253399D+02 0.000000000000000D+00 0.000000000000000D+00 0.544943869253399D+02
 0.107432331914551D+03 0.000000000000000D+00 0.000000000000000D+00 -.107432331914551D+03
 0.451563453419074D+02 0.346715577866111D+02 0.250938331636149D+02 -.143971574431882D+02
 0.469893470234976D+02 -.372845351073934D+02 -.279477048476863D+02 0.606530867036816D+01
 0.145772703473494D+02 -.106087235822098D+02 -.552558510592646D+01 0.833184877282003D+01
 0.552037561271365D+02 0.132217009029920D+02 0.837945678999784D+01 -.529379449892110D+02
0.174617817254D-03 0.000000000000D+00 0.000000000000D+00 0.279086969358D-02 0.102693788730D-04  6 21 21 -11 11 5 -5 4 0.22849332D-01 0.60643820D-02 0.34228856D+04 0.23530608D+03 0.29322585D+04 0.14267143D+01  1  2  1 10  6  2        5 0.245113518378D+03
  </mgrwgt>
  </event>
  <event npLO=' -1 ' npNLO=' 1 '>
  6     66 0.11644275E+02 0.22174725E+02 0.75467711E-02 0.11393073E+00
       21 -1    0    0  501  502 0.00000000E+00 0.00000000E+00 0.63548153E+02 0.63548153E+02 0.00000000E+00 0.0000E+00 0.9000E+01
        3 -1    0    0  502    0 0.00000000E+00 0.00000000E+00 -.51369220E+02 0.51369220E+02 0.00000000E+00 0.0000E+00 0.9000E+01
       23  2    1    2    0    0 -.21433141E+02 0.56867309E+01 0.53695107E+01 0.91720677E+02 0.88837675E+02 0.0000E+00 0.0000E+00
      -11  1    3    3    0    0 -.53761113E+02 0.17155599E+02 -.26479090E+01 0.56494100E+02 0.00000000E+00 0.0000E+00 0.9000E+01
       11  1    3    3    0    0 0.32327972E+02 -.11468868E+02 0.80174197E+01 0.35226577E+02 0.00000000E+00 0.0000E+00 0.9000E+01
        3  1    1    2  501    0 0.21433141E+02 -.56867309E+01 0.68094231E+01 0.23196696E+02 0.00000000E+00 0.0000E+00 0.9000E+01
#aMCatNLO 1  0  0  1  1 0.17901517D+03 0.00000000D+00  -5  6  0 0.00000000D+00 0.00000000D+00 0.00000000D+00 0.00000000D+00 0.00000000D+00
  <mgrwgt>
 0.1119298198D+03    3    2    0
 0.571350946292321D+02 0.000000000000000D+00 0.000000000000000D+00 0.571350946292321D+02
 0.571350946292321D+02 0.000000000000000D+00 0.000000000000000D+00 -.571350946292321D+02
 0.570962758385410D+02 -.537611134256680D+02 0.171555991081365D+02 -.868405533746319D+01
 0.345715897662341D+02 0.323279723828932D+02 -.114688682169848D+02 0.430837352107623D+01
 0.226023236536892D+02 0.214331410427748D+02 -.568673089115167D+01 0.437568181638696D+01
 0.000000000000000D+00 0.000000000000000D+00 -.000000000000000D+00 -.000000000000000D+00
 0.126173220893535D+03 0.000000000000000D+00 0.000000000000000D+00 0.126173220893535D+03
 0.157541450342480D+03 0.000000000000000D+00 0.000000000000000D+00 -.157541450342480D+03
 0.121129018503580D+03 -.863806753087265D+02 0.844701440731868D+02 -.868405533746319D+01
 0.244757530898355D+02 0.215208730795452D+02 0.108329326044054D+02 0.430837352107623D+01
 0.175304737671579D+02 0.140878634050418D+02 0.947116802847658D+01 0.437568181638696D+01
 0.120579425875441D+03 0.507719388241395D+02 -.104774244706069D+03 -.313682294489453D+02
0.121617684622D-02 0.000000000000D+00 0.000000000000D+00 0.211903471274D-03 0.000000000000D+00  6 21 3 -11 11 3 21 2 0.97766390D-02 0.79029569D-02 0.31871003D+04 0.49171844D+03 0.32340887D+04 0.13743683D+01  1  2  2  1  6  1       21 0.126188667647D+03
-.529490441108D-04 0.590450621726D-04 0.267924257596D-05 0.211903471274D-03 0.000000000000D+00  6 21 3 -11 11 3 21 4 0.97766390D-02 0.79029569D-02 0.31871003D+04 0.49171844D+03 0.32340887D+04 0.13743683D+01  1  2  3  1  6  1       21 -.319975641052D+02
0.905091104193D-04 0.000000000000D+00 0.000000000000D+00 0.211903471274D-03 0.000000000000D+00  6 21 3 -11 11 3 21 4 0.97766390D-02 0.79029569D-02 0.31871003D+04 0.49171844D+03 0.32340887D+04 0.13743683D+01  1  2 15  1  6  1       21 0.177387162645D+02
  </mgrwgt>
  </event>
  <event npLO=' -1 ' npNLO=' 1 '>
  6     66 -.11644275E+02 0.21743392E+02 0.75467711E-02 0.15066307E+00
       21 -1    0    0  501  502 0.00000000E+00 0.00000000E+00 0.99683410E+02 0.99683410E+02 0.00000000E+00 0.0000E+00 0.9000E+01
        5 -1    0    0  502    0 0.00000000E+00 0.00000000E+00 -.85036199E+02 0.85036199E+02 0.00000000E+00 0.0000E+00 0.9000E+01
       23  2    1    2    0    0 0.28441720E+01 -.21556571E+02 -.58228057E+02 0.10866976E+03 0.89139410E+02 0.0000E+00 0.0000E+00
      -13  1    3    3    0    0 0.27208592E+02 -.87566030E+01 0.13670305E+02 0.31683794E+02 0.00000000E+00 0.0000E+00 0.9000E+01
       13  1    3    3    0    0 -.24364420E+02 -.12799969E+02 -.71898362E+02 0.76985964E+02 0.00000000E+00 0.0000E+00 0.9000E+01
        5  1    1    2  501    0 -.28441720E+01 0.21556571E+02 0.72875269E+02 0.76049851E+02 0.00000000E+00 0.0000E+00 0.9000E+01
#aMCatNLO 1  0  0  2  1 0.89844438D+00 0.00000000D+00  -5  6  0 0.00000000D+00 0.00000000D+00 0.00000000D+00 0.00000000D+00 0.00000000D+00
  <mgrwgt>
 -.4246145700D+03   11    2    0
 0.920689865702257D+02 0.000000000000000D+00 0.000000000000000D+00 0.920689865702257D+02
 0.920689865702257D+02 0.000000000000000D+00 0.000000000000000D+00 -.920689865702257D+02
 0.306964720890240D+02 0.272085916280417D+02 -.875660296081960D+01 0.111932053013091D+02
 0.829482772928690D+02 -.243644196466507D+02 -.127999685190677D+02 -.782492975498660D+02
 0.704932237585585D+02 -.284417198139098D+01 0.215565714798873D+02 0.670560922485569D+02
 0.000000000000000D+00 0.000000000000000D+00 -.000000000000000D+00 -.000000000000000D+00
 0.922002848641651D+02 0.000000000000000D+00 0.000000000000000D+00 0.922002848641651D+02
 0.934866625605642D+02 0.000000000000000D+00 0.000000000000000D+00 -.934866625605642D+02
 0.305643999634768D+02 0.270788080739921D+02 -.869671509835915D+01 0.111932053013091D+02
 0.830273886194145D+02 -.247160455880735D+02 -.126377127835728D+02 -.782492975498660D+02
 0.705481894204919D+02 -.314297373293749D+01 0.216944518017093D+02 0.670560922485569D+02
 0.154696942134608D+01 0.780211247018925D+00 -.360023919777314D+00 -.128637769639914D+01
0.123529517296D-02 0.000000000000D+00 0.000000000000D+00 0.297507552133D-02 0.000000000000D+00  6 21 5 -13 13 5 21 2 0.15335909D-01 0.13082492D-01 0.15150940D+04 0.47277509D+03 0.32203567D+04 0.13770086D+01  1  2  2  2  6  2        5 0.114609627171D+02
0.463402300039D-04 0.599732518469D-04 0.272136032810D-05 0.297507552133D-02 0.000000000000D+00  6 21 5 -13 13 5 21 4 0.15335909D-01 0.13082492D-01 0.15150940D+04 0.47277509D+03 0.32203567D+04 0.13770086D+01  1  2  3  2  6  2        5 -.377416491002D+00
0.945860657114D-04 0.000000000000D+00 0.000000000000D+00 0.297507552133D-02 0.000000000000D+00  6 21 5 -13 13 5 21 4 0.15335909D-01 0.13082492D-01 0.15150940D+04 0.47277509D+03 0.32203567D+04 0.13770086D+01  1  2 15  2  6  2        5 0.166399042525D+01
0.270915093172D-07 0.000000000000D+00 0.000000000000D+00 0.297058067389D-02 0.000000000000D+00  6 21 5 -13 13 5 21 4 0.15335909D-01 0.13302880D-01 0.15594945D+04 0.48013854D+03 0.32322160D+04 0.13759680D+01  1  2 12  2  6  2        5 0.461797381802D-03
-.200555231788D+00 0.000000000000D+00 0.000000000000D+00 0.297507552133D-02 0.000000000000D+00  6 21 5 -13 13 5 21 4 0.15335909D-01 0.13082492D-01 0.15150940D+04 0.47277509D+03 0.32203567D+04 0.13770086D+01  1  2  4  2  6  2        5 -.352823624622D+04
-.386588416928D+00 0.000000000000D+00 -.331740132106D-01 0.297507552133D-02 0.000000000000D+00  6 21 5 -13 13 5 21 4 0.15335909D-01 0.13300348D-01 0.15150940D+04 0.47277509D+03 0.32203567D+04 0.13770086D+01  1  2  5  2  6  2        5 -.703581618794D+04
0.387088028709D+00 0.000000000000D+00 0.331694895205D-01 0.297507552133D-02 0.000000000000D+00  6 21 5 -13 13 5 21 4 0.15335909D-01 0.13082492D-01 0.15150940D+04 0.47277509D+03 0.32203567D+04 0.13770086D+01  1  2  6  2  6  2        5 0.724977442532D+04
0.196110422831D+00 0.000000000000D+00 0.000000000000D+00 0.297507552133D-02 0.407963436168D-01  6 21 5 -13 13 5 21 4 0.15357780D-01 0.13283936D-01 0.15594945D+04 0.48013854D+03 0.32322160D+04 0.13759680D+01  1  2 11  2  6  2        5 0.334306068625D+04
0.218208052587D-08 0.000000000000D+00 0.000000000000D+00 0.297058067389D-02 0.000000000000D+00  6 21 21 -13 13 5 -5 4 0.15335909D-01 0.13302880D-01 0.15594945D+04 0.48013854D+03 0.32322160D+04 0.13759680D+01  1  2 12 10  6  2        5 0.148171387467D-02
-.116468119253D-02 0.000000000000D+00 -.100229086877D-03 0.297507523003D-02 0.000000000000D+00  6 21 21 -13 13 5 -5 4 0.15335909D-01 0.13300348D-01 0.15150940D+04 0.47277556D+03 0.32203573D+04 0.13770085D+01  1  2  5 10  6  2        5 -.844890754475D+03
0.557784915459D-03 0.000000000000D+00 0.000000000000D+00 0.297507523003D-02 0.111703393380D-03  6 21 21 -13 13 5 -5 4 0.15357780D-01 0.13283936D-01 0.15594945D+04 0.48013854D+03 0.32322160D+04 0.13759680D+01  1  2 11 10  6  2        5 0.378744026878D+03
  </mgrwgt>
  </event>
  <event npLO=' -1 ' npNLO=' 1 '>
  6     66 0.11644275E+02 0.34144637E+02 0.75467711E-02 0.13840902E+00
       21 -1    0    0  501  502 0.00000000E+00 0.00000000E+00 0.47198938E+01 0.47198938E+01 0.00000000E+00 0.0000E+00 0.9000E+01
        3 -1    0    0  502    0 -.00000000E+00 -.00000000E+00 -.10147878E+04 0.10147878E+04 0.00000000E+00 0.0000E+00 0.9000E+01
       23  2    1    2    0    0 -.27369072E+02 0.20415440E+02 -.84169258E+03 0.84770517E+03 0.94825117E+02 0.0000E+00 0.0000E+00
      -11  1    3    3    0    0 -.24057653E+01 0.34436209E+02 -.10649084E+03 0.11194615E+03 0.00000000E+00 0.0000E+00 0.9000E+01
       11  1    3    3    0    0 -.24963307E+02 -.14020769E+02 -.73520174E+03 0.73575902E+03 0.00000000E+00 0.0000E+00 0.9000E+01
        3  1    1    2  501    0 0.27369072E+02 -.20415440E+02 -.16837535E+03 0.17180255E+03 0.00000000E+00 0.0000E+00 0.9000E+01
#aMCatNLO 1  0  0  5  1 0.24879067D+01 0.00000000D+00  -5  6  0 0.00000000D+00 0.00000000D+00 0.00000000D+00 0.00000000D+00 0.00000000D+00
  <mgrwgt>
 0.6877784907D+01    8    2    0
 0.692075916298204D+02 0.000000000000000D+00 0.000000000000000D+00 0.692075916298204D+02
 0.692075916298204D+02 -.000000000000000D+00 -.000000000000000D+00 -.692075916298204D+02
 0.474440390506825D+02 -.240576527921350D+01 0.344362085225115D+02 0.325468382098495D+02
 0.542448257816613D+02 -.249633065461001D+02 -.140207689696735D+02 -.460733381454748D+02
 0.367263184272971D+02 0.273690718253136D+02 -.204154395528380D+02 0.135264999356252D+02
 0.000000000000000D+00 0.000000000000000D+00 0.000000000000000D+00 0.000000000000000D+00
 0.692075916298204D+02 0.000000000000000D+00 0.000000000000000D+00 0.692075916298204D+02
 0.692075916298204D+02 -.000000000000000D+00 -.000000000000000D+00 -.692075916298204D+02
 0.473853235522584D+02 -.216973115727592D+01 0.342601433501308D+02 0.326634923498062D+02
 0.540604739993046D+02 -.246937302710593D+02 -.142218542743963D+02 -.459401066098839D+02
 0.331803227764306D+02 0.232532120497916D+02 -.191134629330202D+02 0.139605688861023D+02
 0.378906293164727D+01 0.361024937854370D+01 -.924826142714240D+00 -.683954626024659D+00
0.178979962277D-03 0.000000000000D+00 0.000000000000D+00 0.131694434581D-03 0.000000000000D+00  6 21 3 -11 11 3 21 2 0.72613750D-03 0.15612120D+00 0.23666294D+04 0.11658563D+04 0.45515161D+04 0.13200573D+01  1  2  2  3  6  5        3 0.321737012229D+01
-.140035360962D-04 0.868942952923D-05 0.394293590334D-06 0.131694434581D-03 0.000000000000D+00  6 21 3 -11 11 3 21 4 0.72613750D-03 0.15612120D+00 0.23666294D+04 0.11658563D+04 0.45515161D+04 0.13200573D+01  1  2  3  3  6  5        3 -.623288421048D+00
0.133311396635D-04 0.000000000000D+00 0.000000000000D+00 0.131694434581D-03 0.000000000000D+00  6 21 3 -11 11 3 21 4 0.72613750D-03 0.15612120D+00 0.23666294D+04 0.11658563D+04 0.45515161D+04 0.13200573D+01  1  2 15  3  6  5        3 0.417589420728D+00
0.493010700430D-05 0.000000000000D+00 0.000000000000D+00 0.131448636400D-03 0.000000000000D+00  6 21 3 -11 11 3 21 4 0.72613750D-03 0.15612120D+00 0.23354207D+04 0.11904670D+04 0.45614090D+04 0.13188249D+01  1  2 12  3  6  5        3 0.153879448331D+00
-.164676064219D-02 0.000000000000D+00 0.000000000000D+00 0.131694434581D-03 0.000000000000D+00  6 21 3 -11 11 3 21 4 0.72613750D-03 0.15612120D+00 0.23666294D+04 0.11658563D+04 0.45515161D+04 0.13200573D+01  1  2  4  3  6  5        3 -.515837235232D+02
-.168682180355D-02 0.000000000000D+00 0.000000000000D+00 0.131694434581D-03 0.000000000000D+00  6 21 3 -11 11 3 21 4 0.72613750D-03 0.15612120D+00 0.23666294D+04 0.11658563D+04 0.45515161D+04 0.13200573D+01  1  2  5  3  6  5        3 -.528386137718D+02
0.186977599475D-02 0.000000000000D+00 -.000000000000D+00 0.131694434581D-03 0.000000000000D+00  6 21 3 -11 11 3 21 4 0.72613750D-03 0.15612120D+00 0.23666294D+04 0.11658563D+04 0.45515161D+04 0.13200573D+01  1  2  6  3  6  5        3 0.585695367574D+02
0.158800235024D-02 0.000000000000D+00 0.000000000000D+00 0.131694434581D-03 0.163956818311D-03  6 21 3 -11 11 3 21 4 0.72613750D-03 0.15612120D+00 0.23354207D+04 0.11904670D+04 0.45614090D+04 0.13188249D+01  1  2 11  3  6  5        3 0.495650348744D+02
  </mgrwgt>
  </event>
  <event npLO=' -1 ' npNLO=' 1 '>
  6     66 0.11644275E+02 0.41068845E+02 0.75467711E-02 0.13522210E+00
       21 -1    0    0  501  502 0.00000000E+00 0.00000000E+00 0.61901900E+01 0.61901900E+01 0.00000000E+00 0.0000E+00 0.9000E+01
        1 -1    0    0  502    0 0.00000000E+00 0.00000000E+00 -.88181514E+03 0.88181514E+03 0.00000000E+00 0.0000E+00 0.9000E+01
       23  2    1    2    0    0 -.30555657E+02 -.27440880E+02 -.68824598E+03 0.69617851E+03 0.96412345E+02 0.0000E+00 0.0000E+00
      -11  1    3    3    0    0 -.19308637E+02 -.38173230E+02 -.11463434E+03 0.12235625E+03 0.00000000E+00 0.0000E+00 0.9000E+01
       11  1    3    3    0    0 -.11247020E+02 0.10732350E+02 -.57361164E+03 0.57382227E+03 0.00000000E+00 0.0000E+00 0.9000E+01
        1  1    1    2  501    0 0.30555657E+02 0.27440880E+02 -.18737897E+03 0.19182682E+03 0.00000000E+00 0.0000E+00 0.9000E+01
#aMCatNLO 1  0  0  1  2 0.19916387D+02 0.00000000D+00  -5  6  0 0.00000000D+00 0.00000000D+00 0.00000000D+00 0.00000000D+00 0.00000000D+00
  <mgrwgt>
 0.3303700135D+03   38    2    0
 0.738823612260897D+02 0.000000000000000D+00 0.000000000000000D+00 0.738823612260897D+02
 0.738823612260897D+02 0.000000000000000D+00 0.000000000000000D+00 -.738823612260897D+02
 0.560100538178170D+02 -.193086366239097D+02 -.381732299970777D+02 0.361539374341271D+02
 0.493254856615684D+02 -.112470202898333D+02 0.107323500637127D+02 -.468115875874724D+02
 0.424291829727940D+02 0.305556569137430D+02 0.274408799333650D+02 0.106576501533453D+02
 0.000000000000000D+00 -.000000000000000D+00 -.000000000000000D+00 0.000000000000000D+00
 0.138103199664776D+03 0.000000000000000D+00 0.000000000000000D+00 0.138103199664776D+03
 0.760189501040328D+02 0.000000000000000D+00 0.000000000000000D+00 -.760189501040328D+02
 0.509207092670464D+02 -.151835085056248D+02 -.324849582072674D+02 0.361539374341271D+02
 0.500285665302577D+02 -.741418320405680D+01 0.160175723513118D+02 -.468115875874724D+02
 0.480970845357617D+02 0.340479395905865D+02 0.322565007972793D+02 0.106576501533453D+02
 0.650757894357429D+02 -.114502478809049D+02 -.157891149413237D+02 0.620842495607433D+02
0.517405594734D-03 0.000000000000D+00 0.000000000000D+00 0.582757936864D-04 0.000000000000D+00  6 21 1 -11 11 1 21 2 0.95233693D-03 0.13566387D+00 0.24697713D+04 0.16866501D+04 0.53190648D+04 0.12987788D+01  1  2  2  1  6  1       21 0.618008158342D+02
-.455502042161D-04 0.251199039058D-04 0.113984664546D-05 0.582757936864D-04 0.000000000000D+00  6 21 1 -11 11 1 21 4 0.95233693D-03 0.13566387D+00 0.24697713D+04 0.16866501D+04 0.53190648D+04 0.12987788D+01  1  2  3  1  6  1       21 -.109315378714D+02
0.416671727533D-04 0.000000000000D+00 0.000000000000D+00 0.582757936864D-04 0.000000000000D+00  6 21 1 -11 11 1 21 4 0.95233693D-03 0.13566387D+00 0.24697713D+04 0.16866501D+04 0.53190648D+04 0.12987788D+01  1  2 15  1  6  1       21 0.839513105805D+01
0.335408718396D-02 0.000000000000D+00 0.000000000000D+00 0.587050366001D-04 0.000000000000D+00  6 21 1 -11 11 1 21 4 0.18316171D-02 0.13566387D+00 0.35948352D+04 0.15499529D+04 0.51487929D+04 0.13035532D+01  1  2 12  1  6  1       21 0.260299828628D+03
0.335408718396D-02 0.000000000000D+00 0.000000000000D+00 0.587050366001D-04 0.000000000000D+00  6 21 1 -11 11 1 21 4 0.18316171D-02 0.13566387D+00 0.35948352D+04 0.15499529D+04 0.51487929D+04 0.13035532D+01  1  2 12  1  6  1       21 0.260299828628D+03
-.261150593888D-02 0.000000000000D+00 0.000000000000D+00 0.582757936864D-04 0.000000000000D+00  6 21 1 -11 11 1 21 4 0.95233693D-03 0.13566387D+00 0.24697713D+04 0.16866501D+04 0.53190648D+04 0.12987788D+01  1  2  4  1  6  1       21 -.526168039900D+03
-.527499769719D-02 0.000000000000D+00 -.554879972258D-03 0.582757936864D-04 0.000000000000D+00  6 21 1 -11 11 1 21 4 0.18313616D-02 0.13566387D+00 0.24697713D+04 0.16866501D+04 0.53190648D+04 0.12987788D+01  1  2  5  1  6  1       21 -.436691164374D+03
0.324576138828D-02 0.000000000000D+00 0.266468400781D-03 0.582757936864D-04 0.000000000000D+00  6 21 1 -11 11 1 21 4 0.95233693D-03 0.13566387D+00 0.24697713D+04 0.16866501D+04 0.53190648D+04 0.12987788D+01  1  2  6  1  6  1       21 0.695146380528D+03
0.776417050531D-03 0.000000000000D+00 0.000000000000D+00 0.587050366001D-04 0.000000000000D+00  6 -1 1 -11 11 1 -1 4 0.18316171D-02 0.13566387D+00 0.35948352D+04 0.15499529D+04 0.51487929D+04 0.13035532D+01  1  2 12  4  6  1       21 0.332585709639D+01
0.776417050531D-03 0.000000000000D+00 0.000000000000D+00 0.587050366001D-04 0.000000000000D+00  6 -1 1 -11 11 1 -1 4 0.18316171D-02 0.13566387D+00 0.35948352D+04 0.15499529D+04 0.51487929D+04 0.13035532D+01  1  2 12  4  6  1       21 0.332585709639D+01
-.964016677786D-03 0.000000000000D+00 -.129320712207D-03 0.582757936864D-04 0.000000000000D+00  6 -1 1 -11 11 1 -1 4 0.18313616D-02 0.13566387D+00 0.24697713D+04 0.16866501D+04 0.53190648D+04 0.12987788D+01  1  2  5  4  6  1       21 -.449505196517D+01
0.776417050531D-03 0.000000000000D+00 0.000000000000D+00 0.587050366001D-04 0.000000000000D+00  6 1 1 -11 11 1 1 4 0.18316171D-02 0.13566387D+00 0.35948352D+04 0.15499529D+04 0.51487929D+04 0.13035532D+01  1  2 12  5  6  1       21 0.349700927313D+01
0.776417050531D-03 0.000000000000D+00 0.000000000000D+00 0.587050366001D-04 0.000000000000D+00  6 1 1 -11 11 1 1 4 0.18316171D-02 0.13566387D+00 0.35948352D+04 0.15499529D+04 0.51487929D+04 0.13035532D+01  1  2 12  5  6  1       21 0.349700927313D+01
-.964016677786D-03 0.000000000000D+00 -.129320712207D-03 0.582757936864D-04 0.000000000000D+00  6 1 1 -11 11 1 1 4 0.18313616D-02 0.13566387D+00 0.24697713D+04 0.16866501D+04 0.53190648D+04 0.12987788D+01  1  2  5  5  6  1       21 -.472602969516D+01
0.776417050531D-03 0.000000000000D+00 0.000000000000D+00 0.587050366001D-04 0.000000000000D+00  6 -2 1 -11 11 1 -2 4 0.18316171D-02 0.13566387D+00 0.35948352D+04 0.15499529D+04 0.51487929D+04 0.13035532D+01  1  2 12  6  6  1       21 0.332812463062D+01
0.776417050531D-03 0.000000000000D+00 0.000000000000D+00 0.587050366001D-04 0.000000000000D+00  6 -4 1 -11 11 1 -4 4 0.18316171D-02 0.13566387D+00 0.35948352D+04 0.15499529D+04 0.51487929D+04 0.13035532D+01  1  2 12  6  6  1       21 0.241735155329D+01
0.776417050531D-03 0.000000000000D+00 0.000000000000D+00 0.587050366001D-04 0.000000000000D+00  6 -2 1 -11 11 1 -2 4 0.18316171D-02 0.13566387D+00 0.35948352D+04 0.15499529D+04 0.51487929D+04 0.13035532D+01  1  2 12  6  6  1       21 0.332812463062D+01
0.776417050531D-03 0.000000000000D+00 0.000000000000D+00 0.587050366001D-04 0.000000000000D+00  6 -4 1 -11 11 1 -4 4 0.18316171D-02 0.13566387D+00 0.35948352D+04 0.15499529D+04 0.51487929D+04 0.13035532D+01  1  2 12  6  6  1       21 0.241735155329D+01
-.964016677786D-03 0.000000000000D+00 -.129320712207D-03 0.582757936864D-04 0.000000000000D+00  6 -2 1 -11 11 1 -2 4 0.18313616D-02 0.13566387D+00 0.24697713D+04 0.16866501D+04 0.53190648D+04 0.12987788D+01  1  2  5  6  6  1       21 -.449803688952D+01
-.964016677786D-03 0.000000000000D+00 -.129320712207D-03 0.582757936864D-04 0.000000000000D+00  6 -4 1 -11 11 1 -4 4 0.18313616D-02 0.13566387D+00 0.24697713D+04 0.16866501D+04 0.53190648D+04 0.12987788D+01  1  2  5  6  6  1       21 -.327041600187D+01
0.776417050531D-03 0.000000000000D+00 0.000000000000D+00 0.587050366001D-04 0.000000000000D+00  6 2 1 -11 11 1 2 4 0.18316171D-02 0.13566387D+00 0.35948352D+04 0.15499529D+04 0.51487929D+04 0.13035532D+01  1  2 12  7  6  1       21 0.361613077523D+01
0.776417050531D-03 0.000000000000D+00 0.000000000000D+00 0.587050366001D-04 0.000000000000D+00  6 4 1 -11 11 1 4 4 0.18316171D-02 0.13566387D+00 0.35948352D+04 0.15499529D+04 0.51487929D+04 0.13035532D+01  1  2 12  7  6  1       21 0.241729677896D+01
0.776417050531D-03 0.000000000000D+00 0.000000000000D+00 0.587050366001D-04 0.000000000000D+00  6 2 1 -11 11 1 2 4 0.18316171D-02 0.13566387D+00 0.35948352D+04 0.15499529D+04 0.51487929D+04 0.13035532D+01  1  2 12  7  6  1       21 0.361613077523D+01
0.776417050531D-03 0.000000000000D+00 0.000000000000D+00 0.587050366001D-04 0.000000000000D+00  6 4 1 -11 11 1 4 4 0.18316171D-02 0.13566387D+00 0.35948352D+04 0.15499529D+04 0.51487929D+04 0.13035532D+01  1  2 12  7  6  1       21 0.241729677896D+01
-.964016677786D-03 0.000000000000D+00 -.129320712207D-03 0.582757936864D-04 0.000000000000D+00  6 2 1 -11 11 1 2 4 0.18313616D-02 0.13566387D+00 0.24697713D+04 0.16866501D+04 0.53190648D+04 0.12987788D+01  1  2  5  7  6  1       21 -.488679572951D+01
-.964016677786D-03 0.000000000000D+00 -.129320712207D-03 0.582757936864D-04 0.000000000000D+00  6 4 1 -11 11 1 4 4 0.18313616D-02 0.13566387D+00 0.24697713D+04 0.16866501D+04 0.53190648D+04 0.12987788D+01  1  2  5  7  6  1       21 -.327034025048D+01
0.776417050531D-03 0.000000000000D+00 0.000000000000D+00 0.587050366001D-04 0.000000000000D+00  6 -3 1 -11 11 1 -3 4 0.18316171D-02 0.13566387D+00 0.35948352D+04 0.15499529D+04 0.51487929D+04 0.13035532D+01  1  2 12  8  6  1       21 0.308576597645D+01
0.776417050531D-03 0.000000000000D+00 0.000000000000D+00 0.587050366001D-04 0.000000000000D+00  6 -5 1 -11 11 1 -5 4 0.18316171D-02 0.13566387D+00 0.35948352D+04 0.15499529D+04 0.51487929D+04 0.13035532D+01  1  2 12  8  6  1       21 0.167929947266D+01
0.776417050531D-03 0.000000000000D+00 0.000000000000D+00 0.587050366001D-04 0.000000000000D+00  6 -3 1 -11 11 1 -3 4 0.18316171D-02 0.13566387D+00 0.35948352D+04 0.15499529D+04 0.51487929D+04 0.13035532D+01  1  2 12  8  6  1       21 0.308576597645D+01
0.776417050531D-03 0.000000000000D+00 0.000000000000D+00 0.587050366001D-04 0.000000000000D+00  6 -5 1 -11 11 1 -5 4 0.18316171D-02 0.13566387D+00 0.35948352D+04 0.15499529D+04 0.51487929D+04 0.13035532D+01  1  2 12  8  6  1       21 0.167929947266D+01
-.964016677786D-03 0.000000000000D+00 -.129320712207D-03 0.582757936864D-04 0.000000000000D+00  6 -3 1 -11 11 1 -3 4 0.18313616D-02 0.13566387D+00 0.24697713D+04 0.16866501D+04 0.53190648D+04 0.12987788D+01  1  2  5  8  6  1       21 -.417133596146D+01
-.964016677786D-03 0.000000000000D+00 -.129320712207D-03 0.582757936864D-04 0.000000000000D+00  6 -5 1 -11 11 1 -5 4 0.18313616D-02 0.13566387D+00 0.24697713D+04 0.16866501D+04 0.53190648D+04 0.12987788D+01  1  2  5  8  6  1       21 -.227591263285D+01
0.776417050531D-03 0.000000000000D+00 0.000000000000D+00 0.587050366001D-04 0.000000000000D+00  6 3 1 -11 11 1 3 4 0.18316171D-02 0.13566387D+00 0.35948352D+04 0.15499529D+04 0.51487929D+04 0.13035532D+01  1  2 12  9  6  1       21 0.307987082639D+01
0.776417050531D-03 0.000000000000D+00 0.000000000000D+00 0.587050366001D-04 0.000000000000D+00  6 5 1 -11 11 1 5 4 0.18316171D-02 0.13566387D+00 0.35948352D+04 0.15499529D+04 0.51487929D+04 0.13035532D+01  1  2 12  9  6  1       21 0.167928047338D+01
0.776417050531D-03 0.000000000000D+00 0.000000000000D+00 0.587050366001D-04 0.000000000000D+00  6 3 1 -11 11 1 3 4 0.18316171D-02 0.13566387D+00 0.35948352D+04 0.15499529D+04 0.51487929D+04 0.13035532D+01  1  2 12  9  6  1       21 0.307987082639D+01
0.776417050531D-03 0.000000000000D+00 0.000000000000D+00 0.587050366001D-04 0.000000000000D+00  6 5 1 -11 11 1 5 4 0.18316171D-02 0.13566387D+00 0.35948352D+04 0.15499529D+04 0.51487929D+04 0.13035532D+01  1  2 12  9  6  1       21 0.167928047338D+01
-.964016677786D-03 0.000000000000D+00 -.129320712207D-03 0.582757936864D-04 0.000000000000D+00  6 3 1 -11 11 1 3 4 0.18313616D-02 0.13566387D+00 0.24697713D+04 0.16866501D+04 0.53190648D+04 0.12987788D+01  1  2  5  9  6  1       21 -.416339725281D+01
-.964016677786D-03 0.000000000000D+00 -.129320712207D-03 0.582757936864D-04 0.000000000000D+00  6 5 1 -11 11 1 5 4 0.18313616D-02 0.13566387D+00 0.24697713D+04 0.16866501D+04 0.53190648D+04 0.12987788D+01  1  2  5  9  6  1       21 -.227588634195D+01
  </mgrwgt>
  </event>
  <event npLO=' -1 ' npNLO=' 1 '>
  6     66 -.11644275E+02 0.26828317E+02 0.75467711E-02 0.14469891E+00
       21 -1    0    0  501  502 0.00000000E+00 0.00000000E+00 0.24580146E+03 0.24580146E+03 0.00000000E+00 0.0000E+00 0.9000E+01
        5 -1    0    0  502    0 0.00000000E+00 0.00000000E+00 -.13052335E+02 0.13052335E+02 0.00000000E+00 0.0000E+00 0.9000E+01
       23  2    1    2    0    0 0.26805444E+02 0.11075837E+01 0.14412374E+03 0.16625672E+03 0.78421216E+02 0.0000E+00 0.0000E+00
      -13  1    3    3    0    0 0.39697815E+01 0.26714972E+01 0.14327184E+03 0.14335172E+03 0.00000000E+00 0.0000E+00 0.9000E+01
       13  1    3    3    0    0 0.22835663E+02 -.15639135E+01 0.85189944E+00 0.22905001E+02 0.00000000E+00 0.0000E+00 0.9000E+01
        5  1    1    2  501    0 -.26805444E+02 -.11075837E+01 0.88625380E+02 0.92597065E+02 0.00000000E+00 0.0000E+00 0.9000E+01
#aMCatNLO 1  0  0  5  1 0.18271220D+01 0.00000000D+00  -5  6  0 0.00000000D+00 0.00000000D+00 0.00000000D+00 0.00000000D+00 0.00000000D+00
  <mgrwgt>
 -.3034772577D+02    8    2    0
 0.566417056781988D+02 0.000000000000000D+00 0.000000000000000D+00 0.566417056781988D+02
 0.566417056781988D+02 -.000000000000000D+00 -.000000000000000D+00 -.566417056781988D+02
 0.331976387568109D+02 0.396978145303828D+01 0.267149717862801D+01 0.328509841110949D+02
 0.505878782243369D+02 0.228356629962976D+02 -.156391348179861D+01 -.451134136746635D+02
 0.294978943752498D+02 -.268054444493359D+02 -.110758369682939D+01 0.122624295635686D+02
 0.000000000000000D+00 0.000000000000000D+00 0.000000000000000D+00 0.000000000000000D+00
 0.566417056781988D+02 0.000000000000000D+00 0.000000000000000D+00 0.566417056781988D+02
 0.566417056781988D+02 -.000000000000000D+00 -.000000000000000D+00 -.566417056781988D+02
 0.332465352030901D+02 0.382259964696351D+01 0.266541572121415D+01 0.329183139602023D+02
 0.503961675750528D+02 0.226119712358362D+02 -.157315628124073D+01 -.450110835505802D+02
 0.261780724045674D+02 -.244413899652675D+02 -.137170048137936D+01 0.927514793272207D+01
 0.346263617368724D+01 -.199318091753217D+01 0.279441041405954D+00 0.281762165765580D+01
0.121055617065D-03 0.000000000000D+00 0.000000000000D+00 0.799446047124D-05 0.000000000000D+00  6 21 5 -13 13 5 21 2 0.37815608D-01 0.20080515D-02 0.74262935D+03 0.71975859D+03 0.30091611D+04 0.13495535D+01  1  2  2  3  6  5        5 0.427746111714D+01
-.820956335718D-05 0.587721798697D-05 0.266686020465D-06 0.799446047124D-05 0.000000000000D+00  6 21 5 -13 13 5 21 4 0.37815608D-01 0.20080515D-02 0.74262935D+03 0.71975859D+03 0.30091611D+04 0.13495535D+01  1  2  3  3  6  5        5 -.516142565238D+00
0.896418202389D-05 0.000000000000D+00 0.000000000000D+00 0.799446047124D-05 0.000000000000D+00  6 21 5 -13 13 5 21 4 0.37815608D-01 0.20080515D-02 0.74262935D+03 0.71975859D+03 0.30091611D+04 0.13495535D+01  1  2 15  3  6  5        5 0.576888701744D+00
0.737872533787D-06 0.000000000000D+00 0.000000000000D+00 0.798149130766D-05 0.000000000000D+00  6 21 5 -13 13 5 21 4 0.37815608D-01 0.20080515D-02 0.72412854D+03 0.73233653D+03 0.30154177D+04 0.13484584D+01  1  2 12  3  6  5        5 0.473470740643D-01
-.635660405083D-02 0.000000000000D+00 0.000000000000D+00 0.799446047124D-05 0.000000000000D+00  6 21 5 -13 13 5 21 4 0.37815608D-01 0.20080515D-02 0.74262935D+03 0.71975859D+03 0.30091611D+04 0.13495535D+01  1  2  4  3  6  5        5 -.409078379780D+03
-.148238542996D-02 0.000000000000D+00 0.000000000000D+00 0.799446047124D-05 0.000000000000D+00  6 21 5 -13 13 5 21 4 0.37815608D-01 0.20080515D-02 0.74262935D+03 0.71975859D+03 0.30091611D+04 0.13495535D+01  1  2  5  3  6  5        5 -.953987105456D+02
0.166653065846D-02 0.000000000000D+00 -.000000000000D+00 0.799446047124D-05 0.000000000000D+00  6 21 5 -13 13 5 21 4 0.37815608D-01 0.20080515D-02 0.74262935D+03 0.71975859D+03 0.30091611D+04 0.13495535D+01  1  2  6  3  6  5        5 0.107249351409D+03
0.564923408882D-02 0.000000000000D+00 0.000000000000D+00 0.799446047124D-05 0.898277787528D-04  6 21 5 -13 13 5 21 4 0.37815608D-01 0.20080515D-02 0.72412854D+03 0.73233653D+03 0.30154177D+04 0.13484584D+01  1  2 11  3  6  5        5 0.362494458816D+03
  </mgrwgt>
  </event>
  <event npLO=' -1 ' npNLO=' 1 '>
  7     66 -.11644275E+02 0.15924782E+02 0.75467711E-02 0.14640798E+00
       21 -1    0    0  501  502 0.00000000E+00 0.00000000E+00 0.11766663E+02 0.11766663E+02 0.00000000E+00 0.0000E+00 0.9000E+01
        3 -1    0    0  502    0 -.00000000E+00 -.00000000E+00 -.12962501E+04 0.12962501E+04 0.00000000E+00 0.0000E+00 0.9000E+01
       23  2    1    2    0    0 0.26461101E+02 -.29649723E+01 -.12554382E+04 0.12592607E+04 0.94358983E+02 0.0000E+00 0.0000E+00
      -11  1    3    3    0    0 -.13415353E+02 -.38963766E+02 -.70626917E+03 0.70747034E+03 0.00000000E+00 0.0000E+00 0.9000E+01
       11  1    3    3    0    0 0.39876453E+02 0.35998794E+02 -.54916902E+03 0.55179041E+03 0.00000000E+00 0.0000E+00 0.9000E+01
        3  1    1    2  503    0 -.18724174E+02 0.94400923E+01 -.34591896E+01 0.21252671E+02 0.00000000E+00 0.0000E+00 0.9000E+01
       21  1    1    2  501  503 -.77369266E+01 -.64751200E+01 -.25586047E+02 0.27503327E+02 0.00000000E+00 0.0000E+00 0.9000E+01
#aMCatNLO 2  0  0  5  1 0.92469394D+01 0.00000000D+00  -5  6  0 0.00000000D+00 0.00000000D+00 0.00000000D+00 0.00000000D+00 0.00000000D+00
  <mgrwgt>
 -.2935283724D+02    2    2    0
 0.123501166327595D+03 0.000000000000000D+00 0.000000000000000D+00 0.123501166327595D+03
 0.123501166327595D+03 -.000000000000000D+00 -.000000000000000D+00 -.123501166327595D+03
 0.745669172060391D+02 -.131115012369910D+02 -.389978129174311D+02 -.621891008504040D+02
 0.669575963025142D+02 0.401494388463902D+02 0.359682059495700D+02 -.397193960641366D+02
 0.105477819146636D+03 -.270379376093992D+02 0.302960696786106D+01 0.101908496914541D+03
 0.000000000000000D+00 -.000000000000000D+00 0.000000000000000D+00 0.000000000000000D+00
 0.123501166327595D+03 0.000000000000000D+00 0.000000000000000D+00 0.123501166327595D+03
 0.123501166327595D+03 -.000000000000000D+00 -.000000000000000D+00 -.123501166327595D+03
 0.736511997615032D+02 -.134153526077691D+02 -.389637663032476D+02 -.610438568259246D+02
 0.662042187927272D+02 0.398764533242435D+02 0.359987940384978D+02 -.386904882885773D+02
 0.945561034416517D+02 -.187241740889119D+02 0.944009230842714D+01 0.922016629999960D+02
 0.125908106593068D+02 -.773692662756256D+01 -.647512004367733D+01 0.753268211450585D+01
-.109404867549D-01 0.000000000000D+00 0.000000000000D+00 0.124691215861D-02 0.000000000000D+00  6 21 3 -11 11 3 21 4 0.18102559D-02 0.19942309D+00 0.39682897D+04 0.64654640D+03 0.37916171D+04 0.13563985D+01  1  2 13  3  6  5        3 -.489675020756D+02
0.438237548839D-02 0.000000000000D+00 0.000000000000D+00 0.123112099293D-02 0.145789173066D-03  6 21 3 -11 11 3 21 4 0.18102559D-02 0.19942309D+00 0.39682897D+04 0.64654640D+03 0.37916171D+04 0.13563985D+01  1  2  1  3  6  5        3 0.196146648346D+02
  </mgrwgt>
  </event>
  <event npLO=' -1 ' npNLO=' 1 '>
  6     66 0.11644275E+02 0.50627357E+02 0.75467711E-02 0.12885266E+00
       21 -1    0    0  501  502 0.00000000E+00 0.00000000E+00 0.33076811E+01 0.33076811E+01 0.00000000E+00 0.0000E+00 0.9000E+01
        1 -1    0    0  502    0 0.00000000E+00 0.00000000E+00 -.19883006E+04 0.19883006E+04 0.00000000E+00 0.0000E+00 0.9000E+01
       23  2    1    2    0    0 0.22020711E+02 0.45587472E+02 -.15824979E+04 0.15859417E+04 0.91369385E+02 0.0000E+00 0.0000E+00
      -13  1    3    3    0    0 0.57554445E+01 -.19554147E+02 -.10743826E+03 0.10935479E+03 0.00000000E+00 0.0000E+00 0.9000E+01
       13  1    3    3    0    0 0.16265267E+02 0.65141619E+02 -.14750597E+04 0.14765869E+04 0.00000000E+00 0.0000E+00 0.9000E+01
        1  1    1    2  501    0 -.22020711E+02 -.45587472E+02 -.40249502E+03 0.40566658E+03 0.00000000E+00 0.0000E+00 0.9000E+01
#aMCatNLO 1  0  0  1  2 0.42441820D+02 0.00000000D+00  -5  6  0 0.00000000D+00 0.00000000D+00 0.00000000D+00 0.00000000D+00 0.00000000D+00
  <mgrwgt>
 0.2751714073D+03   38    2    0
 0.810966360624007D+02 0.000000000000000D+00 0.000000000000000D+00 0.810966360624007D+02
 0.810966360624007D+02 0.000000000000000D+00 0.000000000000000D+00 -.810966360624007D+02
 0.279155512812809D+02 0.575544452993192D+01 -.195541467793937D+02 0.190732326921954D+02
 0.789169382113352D+02 0.162652667430988D+02 0.651416186207975D+02 -.414716018245028D+02
 0.553607826321853D+02 -.220207112730307D+02 -.455874718414038D+02 0.223983691323075D+02
 0.000000000000000D+00 0.000000000000000D+00 -.000000000000000D+00 0.000000000000000D+00
 0.104631667977568D+03 0.000000000000000D+00 0.000000000000000D+00 0.104631667977568D+03
 0.953964084382797D+02 0.000000000000000D+00 0.000000000000000D+00 -.953964084382797D+02
 0.247444230083683D+02 0.215544602021333D+01 -.156157714231601D+02 0.190732326921954D+02
 0.881520513799990D+02 0.484391453656695D+01 0.776365049224545D+02 -.414716018245028D+02
 0.526617813454979D+02 -.294054674295121D+02 -.375085958141041D+02 0.223983691323075D+02
 0.344698206819823D+02 0.224061068727318D+02 -.245121376851903D+02 0.923525953928799D+01
0.209892350053D-02 0.000000000000D+00 0.000000000000D+00 0.104251490203D-02 0.000000000000D+00  6 21 1 -13 13 1 21 2 0.50887402D-03 0.30589240D+00 0.47715274D+04 0.25631293D+04 0.60128745D+04 0.12759083D+01  1  2  2  1  6  1       21 0.110686743193D+03
-.161158380077D-03 0.101902177277D-03 0.462393707278D-05 0.104251490203D-02 0.000000000000D+00  6 21 1 -13 13 1 21 4 0.50887402D-03 0.30589240D+00 0.47715274D+04 0.25631293D+04 0.60128745D+04 0.12759083D+01  1  2  3  1  6  1       21 -.191800730209D+02
0.165959165079D-03 0.000000000000D+00 0.000000000000D+00 0.104251490203D-02 0.000000000000D+00  6 21 1 -13 13 1 21 4 0.50887402D-03 0.30589240D+00 0.47715274D+04 0.25631293D+04 0.60128745D+04 0.12759083D+01  1  2 15  1  6  1       21 0.142475166851D+02
0.121558280370D-02 0.000000000000D+00 0.000000000000D+00 0.103692320004D-02 0.000000000000D+00  6 21 1 -13 13 1 21 4 0.77232442D-03 0.30589240D+00 0.76057557D+04 0.27345305D+04 0.62069241D+04 0.12724819D+01  1  2 12  1  6  1       21 0.566130792608D+02
0.121558280370D-02 0.000000000000D+00 0.000000000000D+00 0.103692320004D-02 0.000000000000D+00  6 21 1 -13 13 1 21 4 0.77232442D-03 0.30589240D+00 0.76057557D+04 0.27345305D+04 0.62069241D+04 0.12724819D+01  1  2 12  1  6  1       21 0.566130792608D+02
-.538699787358D-03 0.000000000000D+00 0.000000000000D+00 0.104251490203D-02 0.000000000000D+00  6 21 1 -13 13 1 21 4 0.50887402D-03 0.30589240D+00 0.47715274D+04 0.25631293D+04 0.60128745D+04 0.12759083D+01  1  2  4  1  6  1       21 -.462471247369D+02
-.403495051071D-02 0.000000000000D+00 -.208226719396D-02 0.104251490203D-02 0.000000000000D+00  6 21 1 -13 13 1 21 4 0.79976520D-03 0.30589240D+00 0.47715274D+04 0.25631293D+04 0.60128745D+04 0.12759083D+01  1  2  5  1  6  1       21 -.201910194161D+03
0.327992636986D-02 0.000000000000D+00 0.142712771487D-02 0.104251490203D-02 0.000000000000D+00  6 21 1 -13 13 1 21 4 0.50887402D-03 0.30589240D+00 0.47715274D+04 0.25631293D+04 0.60128745D+04 0.12759083D+01  1  2  6  1  6  1       21 0.309910829927D+03
0.171157932183D-03 0.000000000000D+00 0.000000000000D+00 0.103692320004D-02 0.000000000000D+00  6 -1 1 -13 13 1 -1 4 0.77232442D-03 0.30589240D+00 0.76057557D+04 0.27345305D+04 0.62069241D+04 0.12724819D+01  1  2 12  4  6  1       21 0.403152775908D+00
0.171157932183D-03 0.000000000000D+00 0.000000000000D+00 0.103692320004D-02 0.000000000000D+00  6 -1 1 -13 13 1 -1 4 0.77232442D-03 0.30589240D+00 0.76057557D+04 0.27345305D+04 0.62069241D+04 0.12724819D+01  1  2 12  4  6  1       21 0.403152775908D+00
-.565027318427D-03 0.000000000000D+00 -.322612785548D-03 0.104251490203D-02 0.000000000000D+00  6 -1 1 -13 13 1 -1 4 0.79976520D-03 0.30589240D+00 0.47715274D+04 0.25631293D+04 0.60128745D+04 0.12759083D+01  1  2  5  4  6  1       21 -.145122063331D+01
0.171157932183D-03 0.000000000000D+00 0.000000000000D+00 0.103692320004D-02 0.000000000000D+00  6 1 1 -13 13 1 1 4 0.77232442D-03 0.30589240D+00 0.76057557D+04 0.27345305D+04 0.62069241D+04 0.12724819D+01  1  2 12  5  6  1       21 0.413658128471D+00
0.171157932183D-03 0.000000000000D+00 0.000000000000D+00 0.103692320004D-02 0.000000000000D+00  6 1 1 -13 13 1 1 4 0.77232442D-03 0.30589240D+00 0.76057557D+04 0.27345305D+04 0.62069241D+04 0.12724819D+01  1  2 12  5  6  1       21 0.413658128471D+00
-.565027318427D-03 0.000000000000D+00 -.322612785548D-03 0.104251490203D-02 0.000000000000D+00  6 1 1 -13 13 1 1 4 0.79976520D-03 0.30589240D+00 0.47715274D+04 0.25631293D+04 0.60128745D+04 0.12759083D+01  1  2  5  5  6  1       21 -.149013387081D+01
0.171157932183D-03 0.000000000000D+00 0.000000000000D+00 0.103692320004D-02 0.000000000000D+00  6 -2 1 -13 13 1 -2 4 0.77232442D-03 0.30589240D+00 0.76057557D+04 0.27345305D+04 0.62069241D+04 0.12724819D+01  1  2 12  6  6  1       21 0.405032986448D+00
0.171157932183D-03 0.000000000000D+00 0.000000000000D+00 0.103692320004D-02 0.000000000000D+00  6 -4 1 -13 13 1 -4 4 0.77232442D-03 0.30589240D+00 0.76057557D+04 0.27345305D+04 0.62069241D+04 0.12724819D+01  1  2 12  6  6  1       21 0.314636729098D+00
0.171157932183D-03 0.000000000000D+00 0.000000000000D+00 0.103692320004D-02 0.000000000000D+00  6 -2 1 -13 13 1 -2 4 0.77232442D-03 0.30589240D+00 0.76057557D+04 0.27345305D+04 0.62069241D+04 0.12724819D+01  1  2 12  6  6  1       21 0.405032986448D+00
0.171157932183D-03 0.000000000000D+00 0.000000000000D+00 0.103692320004D-02 0.000000000000D+00  6 -4 1 -13 13 1 -4 4 0.77232442D-03 0.30589240D+00 0.76057557D+04 0.27345305D+04 0.62069241D+04 0.12724819D+01  1  2 12  6  6  1       21 0.314636729098D+00
-.565027318427D-03 0.000000000000D+00 -.322612785548D-03 0.104251490203D-02 0.000000000000D+00  6 -2 1 -13 13 1 -2 4 0.79976520D-03 0.30589240D+00 0.47715274D+04 0.25631293D+04 0.60128745D+04 0.12759083D+01  1  2  5  6  6  1       21 -.145791565279D+01
-.565027318427D-03 0.000000000000D+00 -.322612785548D-03 0.104251490203D-02 0.000000000000D+00  6 -4 1 -13 13 1 -4 4 0.79976520D-03 0.30589240D+00 0.47715274D+04 0.25631293D+04 0.60128745D+04 0.12759083D+01  1  2  5  6  6  1       21 -.112905153161D+01
0.171157932183D-03 0.000000000000D+00 0.000000000000D+00 0.103692320004D-02 0.000000000000D+00  6 2 1 -13 13 1 2 4 0.77232442D-03 0.30589240D+00 0.76057557D+04 0.27345305D+04 0.62069241D+04 0.12724819D+01  1  2 12  7  6  1       21 0.421924784104D+00
0.171157932183D-03 0.000000000000D+00 0.000000000000D+00 0.103692320004D-02 0.000000000000D+00  6 4 1 -13 13 1 4 4 0.77232442D-03 0.30589240D+00 0.76057557D+04 0.27345305D+04 0.62069241D+04 0.12724819D+01  1  2 12  7  6  1       21 0.314681799999D+00
0.171157932183D-03 0.000000000000D+00 0.000000000000D+00 0.103692320004D-02 0.000000000000D+00  6 2 1 -13 13 1 2 4 0.77232442D-03 0.30589240D+00 0.76057557D+04 0.27345305D+04 0.62069241D+04 0.12724819D+01  1  2 12  7  6  1       21 0.421924784104D+00
0.171157932183D-03 0.000000000000D+00 0.000000000000D+00 0.103692320004D-02 0.000000000000D+00  6 4 1 -13 13 1 4 4 0.77232442D-03 0.30589240D+00 0.76057557D+04 0.27345305D+04 0.62069241D+04 0.12724819D+01  1  2 12  7  6  1       21 0.314681799999D+00
-.565027318427D-03 0.000000000000D+00 -.322612785548D-03 0.104251490203D-02 0.000000000000D+00  6 2 1 -13 13 1 2 4 0.79976520D-03 0.30589240D+00 0.47715274D+04 0.25631293D+04 0.60128745D+04 0.12759083D+01  1  2  5  7  6  1       21 -.152058924244D+01
-.565027318427D-03 0.000000000000D+00 -.322612785548D-03 0.104251490203D-02 0.000000000000D+00  6 4 1 -13 13 1 4 4 0.79976520D-03 0.30589240D+00 0.47715274D+04 0.25631293D+04 0.60128745D+04 0.12759083D+01  1  2  5  7  6  1       21 -.112921070511D+01
0.171157932183D-03 0.000000000000D+00 0.000000000000D+00 0.103692320004D-02 0.000000000000D+00  6 -3 1 -13 13 1 -3 4 0.77232442D-03 0.30589240D+00 0.76057557D+04 0.27345305D+04 0.62069241D+04 0.12724819D+01  1  2 12  8  6  1       21 0.380946662652D+00
0.171157932183D-03 0.000000000000D+00 0.000000000000D+00 0.103692320004D-02 0.000000000000D+00  6 -5 1 -13 13 1 -5 4 0.77232442D-03 0.30589240D+00 0.76057557D+04 0.27345305D+04 0.62069241D+04 0.12724819D+01  1  2 12  8  6  1       21 0.226403001931D+00
0.171157932183D-03 0.000000000000D+00 0.000000000000D+00 0.103692320004D-02 0.000000000000D+00  6 -3 1 -13 13 1 -3 4 0.77232442D-03 0.30589240D+00 0.76057557D+04 0.27345305D+04 0.62069241D+04 0.12724819D+01  1  2 12  8  6  1       21 0.380946662652D+00
0.171157932183D-03 0.000000000000D+00 0.000000000000D+00 0.103692320004D-02 0.000000000000D+00  6 -5 1 -13 13 1 -5 4 0.77232442D-03 0.30589240D+00 0.76057557D+04 0.27345305D+04 0.62069241D+04 0.12724819D+01  1  2 12  8  6  1       21 0.226403001931D+00
-.565027318427D-03 0.000000000000D+00 -.322612785548D-03 0.104251490203D-02 0.000000000000D+00  6 -3 1 -13 13 1 -3 4 0.79976520D-03 0.30589240D+00 0.47715274D+04 0.25631293D+04 0.60128745D+04 0.12759083D+01  1  2  5  8  6  1       21 -.137017576747D+01
-.565027318427D-03 0.000000000000D+00 -.322612785548D-03 0.104251490203D-02 0.000000000000D+00  6 -5 1 -13 13 1 -5 4 0.79976520D-03 0.30589240D+00 0.47715274D+04 0.25631293D+04 0.60128745D+04 0.12759083D+01  1  2  5  8  6  1       21 -.810297710847D+00
0.171157932183D-03 0.000000000000D+00 0.000000000000D+00 0.103692320004D-02 0.000000000000D+00  6 3 1 -13 13 1 3 4 0.77232442D-03 0.30589240D+00 0.76057557D+04 0.27345305D+04 0.62069241D+04 0.12724819D+01  1  2 12  9  6  1       21 0.380293881922D+00
0.171157932183D-03 0.000000000000D+00 0.000000000000D+00 0.103692320004D-02 0.000000000000D+00  6 5 1 -13 13 1 5 4 0.77232442D-03 0.30589240D+00 0.76057557D+04 0.27345305D+04 0.62069241D+04 0.12724819D+01  1  2 12  9  6  1       21 0.226418520567D+00
0.171157932183D-03 0.000000000000D+00 0.000000000000D+00 0.103692320004D-02 0.000000000000D+00  6 3 1 -13 13 1 3 4 0.77232442D-03 0.30589240D+00 0.76057557D+04 0.27345305D+04 0.62069241D+04 0.12724819D+01  1  2 12  9  6  1       21 0.380293881922D+00
0.171157932183D-03 0.000000000000D+00 0.000000000000D+00 0.103692320004D-02 0.000000000000D+00  6 5 1 -13 13 1 5 4 0.77232442D-03 0.30589240D+00 0.76057557D+04 0.27345305D+04 0.62069241D+04 0.12724819D+01  1  2 12  9  6  1       21 0.226418520567D+00
-.565027318427D-03 0.000000000000D+00 -.322612785548D-03 0.104251490203D-02 0.000000000000D+00  6 3 1 -13 13 1 3 4 0.79976520D-03 0.30589240D+00 0.47715274D+04 0.25631293D+04 0.60128745D+04 0.12759083D+01  1  2  5  9  6  1       21 -.136780012193D+01
-.565027318427D-03 0.000000000000D+00 -.322612785548D-03 0.104251490203D-02 0.000000000000D+00  6 5 1 -13 13 1 5 4 0.79976520D-03 0.30589240D+00 0.47715274D+04 0.25631293D+04 0.60128745D+04 0.12759083D+01  1  2  5  9  6  1       21 -.810352415785D+00
  </mgrwgt>
  </event>
  <event npLO=' -1 ' npNLO=' 1 '>
  6     66 0.11644275E+02 0.39065911E+02 0.75467711E-02 0.13522364E+00
       21 -1    0    0  501  502 0.00000000E+00 0.00000000E+00 0.47433274E+02 0.47433274E+02 0.00000000E+00 0.0000E+00 0.9000E+01
        3 -1    0    0  502    0 0.00000000E+00 0.00000000E+00 -.10268543E+03 0.10268543E+03 0.00000000E+00 0.0000E+00 0.9000E+01
       23  2    1    2    0    0 0.16735143E+02 -.35299864E+02 -.31449662E+02 0.10437262E+03 0.91533696E+02 0.0000E+00 0.0000E+00
      -13  1    3    3    0    0 0.24422933E+02 0.23447659E+02 -.29796687E+02 0.45101163E+02 0.00000000E+00 0.0000E+00 0.9000E+01
       13  1    3    3    0    0 -.76877898E+01 -.58747522E+02 -.16529756E+01 0.59271459E+02 0.00000000E+00 0.0000E+00 0.9000E+01
        3  1    1    2  501    0 -.16735143E+02 0.35299864E+02 -.23802495E+02 0.45746083E+02 0.00000000E+00 0.0000E+00 0.9000E+01
#aMCatNLO 1  0  0  1  2 0.92984967D+01 0.00000000D+00  -5  6  0 0.00000000D+00 0.00000000D+00 0.00000000D+00 0.00000000D+00 0.00000000D+00
  <mgrwgt>
 0.1072102131D+03   49    2    0
 0.697904445555596D+02 0.000000000000000D+00 0.000000000000000D+00 0.697904445555596D+02
 0.697904445555596D+02 0.000000000000000D+00 0.000000000000000D+00 -.697904445555596D+02
 0.367113073126501D+02 0.244229328014953D+02 0.234476586160291D+02 -.141932287871236D+02
 0.630919044137448D+02 -.768778984836351D+01 -.587475221484570D+02 0.216844398409797D+02
 0.397776773847243D+02 -.167351429531318D+02 0.352998635324279D+02 -.749121105385607D+01
 0.000000000000000D+00 0.000000000000000D+00 -.000000000000000D+00 0.000000000000000D+00
 0.754529110448190D+02 0.000000000000000D+00 0.000000000000000D+00 0.754529110448190D+02
 0.725060804821998D+02 0.000000000000000D+00 0.000000000000000D+00 -.725060804821998D+02
 0.362895552217238D+02 0.227202552436000D+02 0.244800750908278D+02 -.141932287871236D+02
 0.618818324477686D+02 -.106026866001686D+02 -.569800780337764D+02 0.216844398409797D+02
 0.416173590009806D+02 -.186336068474832D+02 0.364509948151833D+02 -.749121105385607D+01
 0.817024485654577D+01 0.651603820405171D+01 -.395099187223469D+01 0.294683056261919D+01
0.365760371614D-03 0.000000000000D+00 0.000000000000D+00 0.561507480812D-03 0.000000000000D+00  6 21 3 -13 13 3 21 2 0.72974267D-02 0.15797759D-01 0.43672906D+04 0.15261469D+04 0.48016307D+04 0.13044336D+01  1  2  2  1  6  1       21 0.189030380848D+02
-.354089278669D-04 0.177575686869D-04 0.805771597503D-06 0.561507480812D-03 0.000000000000D+00  6 21 3 -13 13 3 21 4 0.72974267D-02 0.15797759D-01 0.43672906D+04 0.15261469D+04 0.48016307D+04 0.13044336D+01  1  2  3  1  6  1       21 -.474892155940D+01
0.268273451856D-04 0.000000000000D+00 0.000000000000D+00 0.561507480812D-03 0.000000000000D+00  6 21 3 -13 13 3 21 4 0.72974267D-02 0.15797759D-01 0.43672906D+04 0.15261469D+04 0.48016307D+04 0.13044336D+01  1  2 15  1  6  1       21 0.235915562043D+01
0.645105915030D-03 0.000000000000D+00 0.000000000000D+00 0.560756238031D-03 0.000000000000D+00  6 21 3 -13 13 3 21 4 0.81964962D-02 0.15797759D-01 0.48940451D+04 0.15497493D+04 0.48307388D+04 0.13035607D+01  1  2 12  1  6  1       21 0.468828532345D+02
0.645105915030D-03 0.000000000000D+00 0.000000000000D+00 0.560756238031D-03 0.000000000000D+00  6 21 3 -13 13 3 21 4 0.81964962D-02 0.15797759D-01 0.48940451D+04 0.15497493D+04 0.48307388D+04 0.13035607D+01  1  2 12  1  6  1       21 0.468828532345D+02
-.721230448556D-03 0.000000000000D+00 0.000000000000D+00 0.561507480812D-03 0.000000000000D+00  6 21 3 -13 13 3 21 4 0.72974267D-02 0.15797759D-01 0.43672906D+04 0.15261469D+04 0.48016307D+04 0.13044336D+01  1  2  4  1  6  1       21 -.634239002991D+02
-.427256023424D-02 0.000000000000D+00 -.847067205653D-03 0.561507480812D-03 0.000000000000D+00  6 21 3 -13 13 3 21 4 0.81892558D-02 0.15797759D-01 0.43672906D+04 0.15261469D+04 0.48016307D+04 0.13044336D+01  1  2  5  1  6  1       21 -.317522446301D+03
0.425264757813D-02 0.000000000000D+00 0.824962055843D-03 0.561507480812D-03 0.000000000000D+00  6 21 3 -13 13 3 21 4 0.72974267D-02 0.15797759D-01 0.43672906D+04 0.15261469D+04 0.48016307D+04 0.13044336D+01  1  2  6  1  6  1       21 0.380849588427D+03
0.292844580716D-07 0.000000000000D+00 0.000000000000D+00 0.561507480812D-03 0.143016278432D-03  6 21 3 -13 13 3 21 4 0.78895054D-02 0.16412470D-01 0.48940451D+04 0.15497493D+04 0.48307388D+04 0.13035607D+01  1  2 11  1  6  1       21 0.212482817658D-02
0.195449717169D-04 0.000000000000D+00 0.000000000000D+00 0.560756238031D-03 0.000000000000D+00  6 -3 3 -13 13 3 -3 4 0.81964962D-02 0.15797759D-01 0.48940451D+04 0.15497493D+04 0.48307388D+04 0.13035607D+01  1  2 12  4  6  1       21 0.833654531836D-01
0.195449717169D-04 0.000000000000D+00 0.000000000000D+00 0.560756238031D-03 0.000000000000D+00  6 -3 3 -13 13 3 -3 4 0.81964962D-02 0.15797759D-01 0.48940451D+04 0.15497493D+04 0.48307388D+04 0.13035607D+01  1  2 12  4  6  1       21 0.833654531836D-01
-.109860805027D-03 0.000000000000D+00 -.254406567887D-04 0.561507480812D-03 0.000000000000D+00  6 -3 3 -13 13 3 -3 4 0.81892558D-02 0.15797759D-01 0.43672906D+04 0.15261469D+04 0.48016307D+04 0.13044336D+01  1  2  5  4  6  1       21 -.480583626491D+00
0.385547470083D-08 0.000000000000D+00 0.000000000000D+00 0.561507480812D-03 0.156844353241D-04  6 -3 3 -13 13 3 -3 4 0.78895054D-02 0.16412470D-01 0.48940451D+04 0.15497493D+04 0.48307388D+04 0.13035607D+01  1  2 11  4  6  1       21 0.163624532798D-04
0.195449717169D-04 0.000000000000D+00 0.000000000000D+00 0.560756238031D-03 0.000000000000D+00  6 3 3 -13 13 3 3 4 0.81964962D-02 0.15797759D-01 0.48940451D+04 0.15497493D+04 0.48307388D+04 0.13035607D+01  1  2 12  5  6  1       21 0.833895299163D-01
0.195449717169D-04 0.000000000000D+00 0.000000000000D+00 0.560756238031D-03 0.000000000000D+00  6 3 3 -13 13 3 3 4 0.81964962D-02 0.15797759D-01 0.48940451D+04 0.15497493D+04 0.48307388D+04 0.13035607D+01  1  2 12  5  6  1       21 0.833895299163D-01
-.109860805027D-03 0.000000000000D+00 -.254406567887D-04 0.561507480812D-03 0.000000000000D+00  6 3 3 -13 13 3 3 4 0.81892558D-02 0.15797759D-01 0.43672906D+04 0.15261469D+04 0.48016307D+04 0.13044336D+01  1  2  5  5  6  1       21 -.480721298755D+00
0.172385375555D-08 0.000000000000D+00 0.000000000000D+00 0.561507480812D-03 0.323434825298D-05  6 3 3 -13 13 3 3 4 0.78895054D-02 0.16412470D-01 0.48940451D+04 0.15497493D+04 0.48307388D+04 0.13035607D+01  1  2 11  5  6  1       21 0.731753179902D-05
0.195449717169D-04 0.000000000000D+00 0.000000000000D+00 0.560756238031D-03 0.000000000000D+00  6 -2 3 -13 13 3 -2 4 0.81964962D-02 0.15797759D-01 0.48940451D+04 0.15497493D+04 0.48307388D+04 0.13035607D+01  1  2 12  6  6  1       21 0.946284415345D-01
0.195449717169D-04 0.000000000000D+00 0.000000000000D+00 0.560756238031D-03 0.000000000000D+00  6 -4 3 -13 13 3 -4 4 0.81964962D-02 0.15797759D-01 0.48940451D+04 0.15497493D+04 0.48307388D+04 0.13035607D+01  1  2 12  6  6  1       21 0.575921855431D-01
0.195449717169D-04 0.000000000000D+00 0.000000000000D+00 0.560756238031D-03 0.000000000000D+00  6 -2 3 -13 13 3 -2 4 0.81964962D-02 0.15797759D-01 0.48940451D+04 0.15497493D+04 0.48307388D+04 0.13035607D+01  1  2 12  6  6  1       21 0.946284415345D-01
0.195449717169D-04 0.000000000000D+00 0.000000000000D+00 0.560756238031D-03 0.000000000000D+00  6 -4 3 -13 13 3 -4 4 0.81964962D-02 0.15797759D-01 0.48940451D+04 0.15497493D+04 0.48307388D+04 0.13035607D+01  1  2 12  6  6  1       21 0.575921855431D-01
-.109860805027D-03 0.000000000000D+00 -.254406567887D-04 0.561507480812D-03 0.000000000000D+00  6 -2 3 -13 13 3 -2 4 0.81892558D-02 0.15797759D-01 0.43672906D+04 0.15261469D+04 0.48016307D+04 0.13044336D+01  1  2  5  6  6  1       21 -.545506445010D+00
-.109860805027D-03 0.000000000000D+00 -.254406567887D-04 0.561507480812D-03 0.000000000000D+00  6 -4 3 -13 13 3 -4 4 0.81892558D-02 0.15797759D-01 0.43672906D+04 0.15261469D+04 0.48016307D+04 0.13044336D+01  1  2  5  6  6  1       21 -.331974086927D+00
0.148268628491D-08 0.000000000000D+00 0.000000000000D+00 0.561507480812D-03 0.410886039668D-05  6 -2 3 -13 13 3 -2 4 0.78895054D-02 0.16412470D-01 0.48940451D+04 0.15497493D+04 0.48307388D+04 0.13035607D+01  1  2 11  6  6  1       21 0.712773202813D-05
0.148268628491D-08 0.000000000000D+00 0.000000000000D+00 0.561507480812D-03 0.410886039668D-05  6 -4 3 -13 13 3 -4 4 0.78895054D-02 0.16412470D-01 0.48940451D+04 0.15497493D+04 0.48307388D+04 0.13035607D+01  1  2 11  6  6  1       21 0.436304627718D-05
0.195449717169D-04 0.000000000000D+00 0.000000000000D+00 0.560756238031D-03 0.000000000000D+00  6 2 3 -13 13 3 2 4 0.81964962D-02 0.15797759D-01 0.48940451D+04 0.15497493D+04 0.48307388D+04 0.13035607D+01  1  2 12  7  6  1       21 0.125958656480D+00
0.195449717169D-04 0.000000000000D+00 0.000000000000D+00 0.560756238031D-03 0.000000000000D+00  6 4 3 -13 13 3 4 4 0.81964962D-02 0.15797759D-01 0.48940451D+04 0.15497493D+04 0.48307388D+04 0.13035607D+01  1  2 12  7  6  1       21 0.575164000727D-01
0.195449717169D-04 0.000000000000D+00 0.000000000000D+00 0.560756238031D-03 0.000000000000D+00  6 2 3 -13 13 3 2 4 0.81964962D-02 0.15797759D-01 0.48940451D+04 0.15497493D+04 0.48307388D+04 0.13035607D+01  1  2 12  7  6  1       21 0.125958656480D+00
0.195449717169D-04 0.000000000000D+00 0.000000000000D+00 0.560756238031D-03 0.000000000000D+00  6 4 3 -13 13 3 4 4 0.81964962D-02 0.15797759D-01 0.48940451D+04 0.15497493D+04 0.48307388D+04 0.13035607D+01  1  2 12  7  6  1       21 0.575164000727D-01
-.109860805027D-03 0.000000000000D+00 -.254406567887D-04 0.561507480812D-03 0.000000000000D+00  6 2 3 -13 13 3 2 4 0.81892558D-02 0.15797759D-01 0.43672906D+04 0.15261469D+04 0.48016307D+04 0.13044336D+01  1  2  5  7  6  1       21 -.725973017671D+00
-.109860805027D-03 0.000000000000D+00 -.254406567887D-04 0.561507480812D-03 0.000000000000D+00  6 4 3 -13 13 3 4 4 0.81892558D-02 0.15797759D-01 0.43672906D+04 0.15261469D+04 0.48016307D+04 0.13044336D+01  1  2  5  7  6  1       21 -.331537612653D+00
0.189425793302D-08 0.000000000000D+00 0.000000000000D+00 0.561507480812D-03 0.524941889684D-05  6 2 3 -13 13 3 2 4 0.78895054D-02 0.16412470D-01 0.48940451D+04 0.15497493D+04 0.48307388D+04 0.13035607D+01  1  2 11  7  6  1       21 0.120120363519D-04
0.189425793302D-08 0.000000000000D+00 0.000000000000D+00 0.561507480812D-03 0.524941889684D-05  6 4 3 -13 13 3 4 4 0.78895054D-02 0.16412470D-01 0.48940451D+04 0.15497493D+04 0.48307388D+04 0.13035607D+01  1  2 11  7  6  1       21 0.556715958694D-05
0.195449717169D-04 0.000000000000D+00 0.000000000000D+00 0.560756238031D-03 0.000000000000D+00  6 -1 3 -13 13 3 -1 4 0.81964962D-02 0.15797759D-01 0.48940451D+04 0.15497493D+04 0.48307388D+04 0.13035607D+01  1  2 12  8  6  1       21 0.973335847222D-01
0.195449717169D-04 0.000000000000D+00 0.000000000000D+00 0.560756238031D-03 0.000000000000D+00  6 -5 3 -13 13 3 -5 4 0.81964962D-02 0.15797759D-01 0.48940451D+04 0.15497493D+04 0.48307388D+04 0.13035607D+01  1  2 12  8  6  1       21 0.381611243989D-01
0.195449717169D-04 0.000000000000D+00 0.000000000000D+00 0.560756238031D-03 0.000000000000D+00  6 -1 3 -13 13 3 -1 4 0.81964962D-02 0.15797759D-01 0.48940451D+04 0.15497493D+04 0.48307388D+04 0.13035607D+01  1  2 12  8  6  1       21 0.973335847222D-01
0.195449717169D-04 0.000000000000D+00 0.000000000000D+00 0.560756238031D-03 0.000000000000D+00  6 -5 3 -13 13 3 -5 4 0.81964962D-02 0.15797759D-01 0.48940451D+04 0.15497493D+04 0.48307388D+04 0.13035607D+01  1  2 12  8  6  1       21 0.381611243989D-01
-.109860805027D-03 0.000000000000D+00 -.254406567887D-04 0.561507480812D-03 0.000000000000D+00  6 -1 3 -13 13 3 -1 4 0.81892558D-02 0.15797759D-01 0.43672906D+04 0.15261469D+04 0.48016307D+04 0.13044336D+01  1  2  5  8  6  1       21 -.561080975626D+00
-.109860805027D-03 0.000000000000D+00 -.254406567887D-04 0.561507480812D-03 0.000000000000D+00  6 -5 3 -13 13 3 -5 4 0.81892558D-02 0.15797759D-01 0.43672906D+04 0.15261469D+04 0.48016307D+04 0.13044336D+01  1  2  5  8  6  1       21 -.219903792702D+00
0.204629379241D-08 0.000000000000D+00 0.000000000000D+00 0.561507480812D-03 0.567074478880D-05  6 -1 3 -13 13 3 -1 4 0.78895054D-02 0.16412470D-01 0.48940451D+04 0.15497493D+04 0.48307388D+04 0.13035607D+01  1  2 11  8  6  1       21 0.101032007430D-04
0.204629379241D-08 0.000000000000D+00 0.000000000000D+00 0.561507480812D-03 0.567074478880D-05  6 -5 3 -13 13 3 -5 4 0.78895054D-02 0.16412470D-01 0.48940451D+04 0.15497493D+04 0.48307388D+04 0.13035607D+01  1  2 11  8  6  1       21 0.399462229719D-05
0.195449717169D-04 0.000000000000D+00 0.000000000000D+00 0.560756238031D-03 0.000000000000D+00  6 1 3 -13 13 3 1 4 0.81964962D-02 0.15797759D-01 0.48940451D+04 0.15497493D+04 0.48307388D+04 0.13035607D+01  1  2 12  9  6  1       21 0.114065187644D+00
0.195449717169D-04 0.000000000000D+00 0.000000000000D+00 0.560756238031D-03 0.000000000000D+00  6 5 3 -13 13 3 5 4 0.81964962D-02 0.15797759D-01 0.48940451D+04 0.15497493D+04 0.48307388D+04 0.13035607D+01  1  2 12  9  6  1       21 0.381352335198D-01
0.195449717169D-04 0.000000000000D+00 0.000000000000D+00 0.560756238031D-03 0.000000000000D+00  6 1 3 -13 13 3 1 4 0.81964962D-02 0.15797759D-01 0.48940451D+04 0.15497493D+04 0.48307388D+04 0.13035607D+01  1  2 12  9  6  1       21 0.114065187644D+00
0.195449717169D-04 0.000000000000D+00 0.000000000000D+00 0.560756238031D-03 0.000000000000D+00  6 5 3 -13 13 3 5 4 0.81964962D-02 0.15797759D-01 0.48940451D+04 0.15497493D+04 0.48307388D+04 0.13035607D+01  1  2 12  9  6  1       21 0.381352335198D-01
-.109860805027D-03 0.000000000000D+00 -.254406567887D-04 0.561507480812D-03 0.000000000000D+00  6 1 3 -13 13 3 1 4 0.81892558D-02 0.15797759D-01 0.43672906D+04 0.15261469D+04 0.48016307D+04 0.13044336D+01  1  2  5  9  6  1       21 -.657466032840D+00
-.109860805027D-03 0.000000000000D+00 -.254406567887D-04 0.561507480812D-03 0.000000000000D+00  6 5 3 -13 13 3 5 4 0.81892558D-02 0.15797759D-01 0.43672906D+04 0.15261469D+04 0.48016307D+04 0.13044336D+01  1  2  5  9  6  1       21 -.219754724235D+00
0.143097201492D-08 0.000000000000D+00 0.000000000000D+00 0.561507480812D-03 0.396554841082D-05  6 1 3 -13 13 3 1 4 0.78895054D-02 0.16412470D-01 0.48940451D+04 0.15497493D+04 0.48307388D+04 0.13035607D+01  1  2 11  9  6  1       21 0.824073009020D-05
0.143097201492D-08 0.000000000000D+00 0.000000000000D+00 0.561507480812D-03 0.396554841082D-05  6 5 3 -13 13 3 5 4 0.78895054D-02 0.16412470D-01 0.48940451D+04 0.15497493D+04 0.48307388D+04 0.13035607D+01  1  2 11  9  6  1       21 0.279162917010D-05
  </mgrwgt>
  </event>
  <event npLO=' -1 ' npNLO=' 1 '>
  7     66 0.11644275E+02 0.26514993E+02 0.75467711E-02 0.13431440E+00
        2 -1    0    0  501    0 0.00000000E+00 0.00000000E+00 0.23707185E+03 0.23707185E+03 0.00000000E+00 0.0000E+00 0.9000E+01
        1 -1    0    0  502    0 0.00000000E+00 0.00000000E+00 -.22154578E+03 0.22154578E+03 0.00000000E+00 0.0000E+00 0.9000E+01
       23  2    1    2    0    0 -.25209068E+02 0.30121216E+02 -.17535912E+03 0.20329295E+03 0.95049561E+02 0.0000E+00 0.0000E+00
      -11  1    3    3    0    0 0.46623688E+01 -.12877724E+02 -.13870854E+03 0.13938304E+03 0.00000000E+00 0.0000E+00 0.9000E+01
       11  1    3    3    0    0 -.29871437E+02 0.42998940E+02 -.36650578E+02 0.63909909E+02 0.00000000E+00 0.0000E+00 0.9000E+01
        1  1    1    2  501    0 -.15466465E+02 -.24608094E+02 -.23294021E+02 0.37247567E+02 0.00000000E+00 0.0000E+00 0.9000E+01
        2  1    1    2  502    0 0.40675534E+02 -.55131218E+01 0.21417921E+03 0.21807711E+03 0.00000000E+00 0.0000E+00 0.9000E+01
#aMCatNLO 2  0  0  1  5 0.19182308D+01 0.00000000D+00  -5  6  0 0.00000000D+00 0.00000000D+00 0.00000000D+00 0.00000000D+00 0.00000000D+00
  <mgrwgt>
 0.3005776886D+02    1    2    0
 0.646370212823723D+02 0.000000000000000D+00 0.000000000000000D+00 0.646370212823723D+02
 0.646370212823723D+02 0.000000000000000D+00 0.000000000000000D+00 -.646370212823723D+02
 0.482155828498198D+02 0.188267347587267D+02 -.147975484574938D+02 -.418488834680271D+02
 0.513643355342775D+02 -.128238751339982D+02 0.406883304847944D+02 0.286059950672166D+02
 0.296941241806474D+02 -.600285962472856D+01 -.258907820273005D+02 0.132428884008105D+02
 0.000000000000000D+00 0.000000000000000D+00 -.000000000000000D+00 0.000000000000000D+00
 0.767655591878397D+03 0.000000000000000D+00 0.000000000000000D+00 0.767655591878397D+03
 0.684190519269806D+02 0.000000000000000D+00 0.000000000000000D+00 -.684190519269806D+02
 0.440329707350677D+02 0.466236875818162D+01 -.128777242476127D+02 -.418488834680271D+02
 0.596616675704008D+02 -.298714372088354D+02 0.429989402494295D+02 0.286059950672166D+02
 0.319396922967679D+02 -.154664652930082D+02 -.246080942406370D+02 0.132428884008105D+02
 0.700440313203141D+03 0.406755337436619D+02 -.551312176117982D+01 0.699236539951416D+03
0.407453785472D-01 0.000000000000D+00 0.000000000000D+00 0.105445398538D-03 0.609795796550D-04  6 2 1 -11 11 1 2 4 0.36472592D-01 0.34083966D-01 0.46352069D+04 0.16749274D+04 0.52136949D+04 0.12991707D+01  1  2  1  7  6  1       21 0.300577688622D+02
  </mgrwgt>
  </event>
  <event npLO=' -1 ' npNLO=' 1 '>
  7     66 -.11644275E+02 0.68639716E+01 0.75467711E-02 0.17806730E+00
        2 -1    0    0  501    0 0.00000000E+00 0.00000000E+00 0.96370714E+03 0.96370714E+03 0.00000000E+00 0.0000E+00 0.9000E+01
        3 -1    0    0  502    0 0.00000000E+00 0.00000000E+00 -.13410093E+02 0.13410093E+02 0.00000000E+00 0.0000E+00 0.9000E+01
       23  2    1    2    0    0 0.11793408E+02 -.24755145E+01 0.12717076E+03 0.15375073E+03 0.85566761E+02 0.0000E+00 0.0000E+00
      -13  1    3    3    0    0 0.24390296E+02 0.24154936E+02 0.14450912E+02 0.37244816E+02 0.00000000E+00 0.0000E+00 0.9000E+01
       13  1    3    3    0    0 -.12596888E+02 -.26630451E+02 0.11271985E+03 0.11650591E+03 0.00000000E+00 0.0000E+00 0.9000E+01
        3  1    1    2  501    0 -.92216008E+01 -.19601412E+01 0.20278344E+03 0.20300247E+03 0.00000000E+00 0.0000E+00 0.9000E+01
        2  1    1    2  502    0 -.25718073E+01 0.44356557E+01 0.62034285E+03 0.62036404E+03 0.00000000E+00 0.0000E+00 0.9000E+01
#aMCatNLO 2  0  0  1  2 0.51304482D+01 0.00000000D+00  -5  6  0 0.00000000D+00 0.00000000D+00 0.00000000D+00 0.00000000D+00 0.00000000D+00
  <mgrwgt>
 -.4401442478D+03    2    2    0
 0.677804908404103D+02 0.000000000000000D+00 0.000000000000000D+00 0.677804908404103D+02
 0.677804908404103D+02 0.000000000000000D+00 0.000000000000000D+00 -.677804908404103D+02
 0.631707141023081D+02 0.231958083302486D+02 0.262150970331468D+02 -.525857612253033D+02
 0.316148576024390D+02 -.132022358991383D+02 -.255863931813010D+02 0.130589690426876D+02
 0.407754099760734D+02 -.999357243111030D+01 -.628703851845788D+00 0.395267921826157D+02
 0.000000000000000D+00 -.000000000000000D+00 0.000000000000000D+00 0.000000000000000D+00
 0.190378754073426D+03 0.000000000000000D+00 0.000000000000000D+00 0.190378754073426D+03
 0.678825855125989D+02 0.000000000000000D+00 0.000000000000000D+00 -.678825855125989D+02
 0.627981669162752D+02 0.243902962138772D+02 0.241549360379835D+02 -.525857612253033D+02
 0.322242014585880D+02 -.125968881185273D+02 -.266304505578689D+02 0.130589690426876D+02
 0.406355432569575D+02 -.922160084221311D+01 -.196014118044296D+01 0.395267921826157D+02
 0.122603427954204D+03 -.257180725313688D+01 0.443565570032842D+01 0.122496168560827D+03
-.252011943382D-01 0.000000000000D+00 0.000000000000D+00 0.775649587284D-03 0.000000000000D+00  6 2 3 -13 13 3 2 4 0.14848596D+00 0.20599883D-02 0.15343476D+04 0.11581284D+03 0.23523704D+04 0.14834553D+01  1  2 13  7  6  1       21 -.220072123903D+03
-.252011943382D-01 0.000000000000D+00 0.000000000000D+00 0.775649587284D-03 0.000000000000D+00  6 2 3 -13 13 3 2 4 0.14848596D+00 0.20599883D-02 0.15343476D+04 0.11581284D+03 0.23523704D+04 0.14834553D+01  1  2 13  7  6  1       21 -.220072123903D+03
  </mgrwgt>
  </event>
  <event npLO=' -1 ' npNLO=' 1 '>
  7     66 0.11644275E+02 0.29178066E+02 0.75467711E-02 0.14034862E+00
       21 -1    0    0  503  502 0.00000000E+00 0.00000000E+00 0.31258971E+03 0.31258971E+03 0.00000000E+00 0.0000E+00 0.9000E+01
        1 -1    0    0  502    0 0.00000000E+00 0.00000000E+00 -.15747347E+03 0.15747347E+03 0.00000000E+00 0.0000E+00 0.9000E+01
       23  2    1    2    0    0 0.29496402E+02 -.28394177E+01 -.12793733E+03 0.16059341E+03 0.92434743E+02 0.0000E+00 0.0000E+00
      -13  1    3    3    0    0 -.13625610E+01 -.15011497E+02 0.10413906E+02 0.18320782E+02 0.00000000E+00 0.0000E+00 0.9000E+01
       13  1    3    3    0    0 0.30858963E+02 0.12172079E+02 -.13835124E+03 0.14227263E+03 0.00000000E+00 0.0000E+00 0.9000E+01
        1  1    1    2  501    0 -.35786719E+02 -.17883662E+02 0.18579061E+02 0.44110046E+02 0.00000000E+00 0.0000E+00 0.9000E+01
       21  1    1    2  503  501 0.62903168E+01 0.20723079E+02 0.26447452E+03 0.26535972E+03 0.00000000E+00 0.0000E+00 0.9000E+01
#aMCatNLO 2  0  0  1  2 0.21692615D+02 0.00000000D+00  -5  6  0 0.00000000D+00 0.00000000D+00 0.00000000D+00 0.00000000D+00 0.00000000D+00
  <mgrwgt>
 0.1195521064D+03    3    2    0
 0.858417999360575D+02 0.000000000000000D+00 0.000000000000000D+00 0.858417999360575D+02
 0.858417999360575D+02 0.000000000000000D+00 0.000000000000000D+00 -.858417999360575D+02
 0.266159301178371D+02 -.361339848360952D+00 -.117130326741264D+02 0.238973227606445D+02
 0.841093816130936D+02 0.338693509619247D+02 0.220896243709935D+02 -.737516348015648D+02
 0.609582881411843D+02 -.335080111135638D+02 -.103765916968671D+02 0.498543120409202D+02
 0.000000000000000D+00 0.000000000000000D+00 0.000000000000000D+00 0.000000000000000D+00
 0.567326154098354D+03 0.000000000000000D+00 0.000000000000000D+00 0.567326154098354D+03
 0.867659370169378D+02 0.000000000000000D+00 0.000000000000000D+00 -.867659370169378D+02
 0.282539138726844D+02 -.136256100009354D+01 -.150114969779723D+02 0.238973227606445D+02
 0.808686513511729D+02 0.308589633945099D+02 0.121720792665214D+02 -.737516348015648D+02
 0.639215695074589D+02 -.357867191580914D+02 -.178836615692465D+02 0.498543120409202D+02
 0.481047956383975D+03 0.629031676367506D+01 0.207230792806973D+02 0.480560217081416D+03
-.177886478712D+00 0.000000000000D+00 0.000000000000D+00 0.190324985216D-02 0.000000000000D+00  6 21 1 -13 13 1 21 4 0.48608450D-01 0.23968651D-01 0.30200070D+04 0.10199101D+04 0.42076114D+04 0.13280334D+01  1  2 13  1  6  1       21 -.574817338637D+03
-.177886478712D+00 0.000000000000D+00 0.000000000000D+00 0.190324985216D-02 0.000000000000D+00  6 21 1 -13 13 1 21 4 0.48608450D-01 0.23968651D-01 0.30200070D+04 0.10199101D+04 0.42076114D+04 0.13280334D+01  1  2 13  1  6  1       21 -.574817338637D+03
0.389424173304D+00 0.000000000000D+00 0.000000000000D+00 0.187142245263D-02 0.375210009122D-02  6 21 1 -13 13 1 21 4 0.48090725D-01 0.24226687D-01 0.30200070D+04 0.10199101D+04 0.42076114D+04 0.13280334D+01  1  2  1  1  6  1       21 0.126918678369D+04
  </mgrwgt>
  </event>
  <event npLO=' -1 ' npNLO=' 1 '>
  7     66 0.11644275E+02 0.11300111E+02 0.75467711E-02 0.16164308E+00
       21 -1    0    0  503  502 0.00000000E+00 0.00000000E+00 0.73808885E+01 0.73808885E+01 0.00000000E+00 0.0000E+00 0.9000E+01
        1 -1    0    0  502    0 0.00000000E+00 0.00000000E+00 -.60085191E+03 0.60085191E+03 0.00000000E+00 0.0000E+00 0.9000E+01
       23  2    1    2    0    0 0.10525037E+02 -.92342849E+01 -.51612419E+03 0.52462611E+03 0.93017933E+02 0.0000E+00 0.0000E+00
      -11  1    3    3    0    0 0.12182888E+02 -.20939545E+02 -.30930679E+02 0.39288601E+02 0.00000000E+00 0.0000E+00 0.9000E+01
       11  1    3    3    0    0 -.16578507E+01 0.11705260E+02 -.48519351E+03 0.48533751E+03 0.00000000E+00 0.0000E+00 0.9000E+01
        1  1    1    2  501    0 0.54216402E+01 0.77229973E+01 -.78103168E+01 0.12249078E+02 0.00000000E+00 0.0000E+00 0.9000E+01
       21  1    1    2  503  501 -.15946678E+02 0.15112877E+01 -.69536515E+02 0.71357603E+02 0.00000000E+00 0.0000E+00 0.9000E+01
#aMCatNLO 2  0  0  1  5 0.85913078D+00 0.00000000D+00  -5  6  0 0.00000000D+00 0.00000000D+00 0.00000000D+00 0.00000000D+00 0.00000000D+00
  <mgrwgt>
 0.7615515868D+01    1    2    0
 0.580323798384315D+02 0.000000000000000D+00 0.000000000000000D+00 0.580323798384315D+02
 0.580323798384315D+02 0.000000000000000D+00 0.000000000000000D+00 -.580323798384315D+02
 0.401629529434306D+02 0.658468578592642D+01 -.204089963267233D+02 0.339584683278360D+02
 0.551431689357422D+02 -.913733797963778D+01 0.124141012877519D+02 -.529449546617910D+02
 0.207586377976902D+02 0.255265219371136D+01 0.799489503897137D+01 0.189864863339551D+02
 0.000000000000000D+00 -.000000000000000D+00 0.000000000000000D+00 0.000000000000000D+00
 0.668264942078452D+02 0.000000000000000D+00 0.000000000000000D+00 0.668264942078452D+02
 0.663632143035974D+02 0.000000000000000D+00 0.000000000000000D+00 -.663632143035974D+02
 0.417140851112064D+02 0.121828882413345D+02 -.209395453530273D+02 0.339584683278360D+02
 0.542487770812550D+02 -.165785074677564D+01 0.117052604231607D+02 -.529449546617910D+02
 0.212020171843110D+02 0.542164021931652D+01 0.772299726185684D+01 0.189864863339551D+02
 0.160248291346700D+02 -.159466777138754D+02 0.151128766800971D+01 0.463279904247843D+00
0.200416476040D-04 0.000000000000D+00 0.000000000000D+00 0.397014279708D-02 0.179631166025D-03  6 21 1 -11 11 1 21 4 0.11355213D-02 0.92438755D-01 0.94562431D+03 0.23296559D+03 0.29989362D+04 0.14274679D+01  1  2  1  1  6  1       21 0.761551586788D+01
  </mgrwgt>
  </event>
  <event npLO=' -1 ' npNLO=' 1 '>
  7     66 -.11644275E+02 0.94401399E+01 0.75467711E-02 0.16269035E+00
       21 -1    0    0  501  502 0.00000000E+00 0.00000000E+00 0.19050428E+03 0.19050428E+03 0.00000000E+00 0.0000E+00 0.9000E+01
        3 -1    0    0  503    0 0.00000000E+00 0.00000000E+00 -.16379640E+03 0.16379640E+03 0.00000000E+00 0.0000E+00 0.9000E+01
       23  2    1    2    0    0 0.96917927E+01 0.96588552E+01 -.13707653E+03 0.16571780E+03 0.92115088E+02 0.0000E+00 0.0000E+00
      -11  1    3    3    0    0 0.17059748E+02 -.15974095E+02 -.13706876E+03 0.13904694E+03 0.00000000E+00 0.0000E+00 0.9000E+01
       11  1    3    3    0    0 -.73679556E+01 0.25632951E+02 -.77767276E-02 0.26670864E+02 0.00000000E+00 0.0000E+00 0.9000E+01
        3  1    1    2  501    0 0.12738397E+00 -.15037504E+02 0.17326249E+03 0.17391386E+03 0.00000000E+00 0.0000E+00 0.9000E+01
       21  1    1    2  503  502 -.98191767E+01 0.53786486E+01 -.94780767E+01 0.14669016E+02 0.00000000E+00 0.0000E+00 0.9000E+01
#aMCatNLO 2  0  0  2  1 0.12186642D+02 0.00000000D+00  -5  6  0 0.00000000D+00 0.00000000D+00 0.00000000D+00 0.00000000D+00 0.00000000D+00
  <mgrwgt>
 -.2335819916D+04    3    2    0
 0.168756407639986D+03 0.000000000000000D+00 0.000000000000000D+00 0.168756407639986D+03
 0.168756407639986D+03 0.000000000000000D+00 0.000000000000000D+00 -.168756407639986D+03
 0.153864603851065D+03 0.125749506851048D+02 -.135174587283184D+02 -.152752954940455D+03
 0.274619775625807D+02 -.815740823985590D+01 0.260653890577251D+02 -.286572778285800D+01
 0.156186233866325D+03 -.441754244524888D+01 -.125479303294067D+02 0.155618682723313D+03
 0.000000000000000D+00 -.000000000000000D+00 0.000000000000000D+00 -.000000000000000D+00
 0.171181438810451D+03 0.000000000000000D+00 0.000000000000000D+00 0.171181438810451D+03
 0.182285627347176D+03 0.000000000000000D+00 0.000000000000000D+00 -.182285627347176D+03
 0.154530488845425D+03 0.170597483243158D+02 -.159740954947816D+02 -.152752954940455D+03
 0.268243793583722D+02 -.736795558277338D+01 0.256329507229796D+02 -.286572778285800D+01
 0.156343586886177D+03 0.127383967290695D+00 -.150375038228227D+02 0.155618682723313D+03
 0.157686110676525D+02 -.981917670883314D+01 0.537864859462478D+01 -.111041885367253D+02
-.458996774904D+00 0.000000000000D+00 0.000000000000D+00 0.865512412544D-01 0.000000000000D+00  6 21 3 -11 11 3 21 4 0.28893156D-01 0.25561563D-01 0.14544986D+04 0.22579071D+03 0.29354164D+04 0.14298347D+01  1  2 13  2  6  2        3 -.238230735892D+04
-.934459553054D-02 0.000000000000D+00 0.000000000000D+00 0.888492680257D-01 0.000000000000D+00  6 21 3 -11 11 3 21 4 0.28893156D-01 0.23329147D-01 0.87252375D+03 0.17696524D+03 0.28288317D+04 0.14486921D+01  1  2  8  2  6  2        3 -.600445917646D+02
0.205395631442D-01 0.000000000000D+00 0.000000000000D+00 0.888492680257D-01 0.534258665693D-02  6 21 3 -11 11 3 21 4 0.29308351D-01 0.25199447D-01 0.14544986D+04 0.22579071D+03 0.29354164D+04 0.14298347D+01  1  2  1  2  6  2        3 0.106532034736D+03
  </mgrwgt>
  </event>
  <event npLO=' -1 ' npNLO=' 1 '>
  6     66 0.11644275E+02 0.14546090E+02 0.75467711E-02 0.12498791E+00
       21 -1    0    0  501  502 0.00000000E+00 0.00000000E+00 0.15805516E+02 0.15805516E+02 0.00000000E+00 0.0000E+00 0.9000E+01
        1 -1    0    0  502    0 0.00000000E+00 0.00000000E+00 -.87747893E+03 0.87747893E+03 0.00000000E+00 0.0000E+00 0.9000E+01
       23  2    1    2    0    0 0.14199728E+02 -.31553837E+01 -.87118151E+03 0.87590651E+03 0.89685099E+02 0.0000E+00 0.0000E+00
      -11  1    3    3    0    0 0.24041730E+02 -.41909835E+02 -.37168707E+03 0.37481425E+03 0.00000000E+00 0.0000E+00 0.9000E+01
       11  1    3    3    0    0 -.98420017E+01 0.38754452E+02 -.49949443E+03 0.50109227E+03 0.00000000E+00 0.0000E+00 0.9000E+01
        1  1    1    2  501    0 -.14199728E+02 0.31553837E+01 0.95080911E+01 0.17377932E+02 0.00000000E+00 0.0000E+00 0.9000E+01
#aMCatNLO 1  0  0  1  2 0.10069395D+02 0.00000000D+00  -5  6  0 0.00000000D+00 0.00000000D+00 0.00000000D+00 0.00000000D+00 0.00000000D+00
  <mgrwgt>
 0.9706274513D+03    3    2    0
 0.117766748973301D+03 0.000000000000000D+00 0.000000000000000D+00 0.117766748973301D+03
 0.117766748973301D+03 0.000000000000000D+00 0.000000000000000D+00 -.117766748973301D+03
 0.617443689679788D+02 0.240417299948423D+02 -.419098353579683D+02 -.384438293927256D+02
 0.730972697309894D+02 -.984200167622799D+01 0.387544517058021D+02 -.611918157772164D+02
 0.100691859247634D+03 -.141997283186143D+02 0.315538365216616D+01 0.996356451699420D+02
 0.000000000000000D+00 0.000000000000000D+00 0.000000000000000D+00 -.000000000000000D+00
 0.138446261482411D+03 0.000000000000000D+00 0.000000000000000D+00 0.138446261482411D+03
 0.249240020397831D+03 0.000000000000000D+00 0.000000000000000D+00 -.249240020397831D+03
 0.746744217890585D+02 0.135081415099930D+02 -.625769235749028D+02 -.384438293927256D+02
 0.669232778934742D+02 -.206537001227139D+02 0.175417067908280D+02 -.611918157772164D+02
 0.107961588126178D+03 -.303109219333952D+02 -.284550651702563D+02 0.996356451699420D+02
 0.138126994071532D+03 0.374564805461161D+02 0.734902819543310D+02 -.110793758915420D+03
0.194654948855D-01 0.000000000000D+00 0.000000000000D+00 0.140707505371D-01 0.000000000000D+00  6 21 1 -11 11 1 21 2 0.24316178D-02 0.13499676D+00 0.26443649D+04 0.21158873D+03 0.27774561D+04 0.14347893D+01  1  2  2  1  6  1       21 0.690169376424D+03
0.487037032867D-02 0.945044595535D-03 0.428825649999D-04 0.140707505371D-01 0.000000000000D+00  6 21 1 -11 11 1 21 4 0.24316178D-02 0.13499676D+00 0.26443649D+04 0.21158873D+03 0.27774561D+04 0.14347893D+01  1  2  3  1  6  1       21 0.181434474246D+03
0.135666381215D-02 0.000000000000D+00 0.000000000000D+00 0.140707505371D-01 0.000000000000D+00  6 21 1 -11 11 1 21 4 0.24316178D-02 0.13499676D+00 0.26443649D+04 0.21158873D+03 0.27774561D+04 0.14347893D+01  1  2 15  1  6  1       21 0.990236006774D+02
  </mgrwgt>
  </event>
  <event npLO=' -1 ' npNLO=' 1 '>
  7     66 0.11644275E+02 0.31907990E+02 0.75467711E-02 0.13553040E+00
       21 -1    0    0  501  502 0.00000000E+00 0.00000000E+00 0.40624920E+03 0.40624920E+03 0.00000000E+00 0.0000E+00 0.9000E+01
        3 -1    0    0  502    0 0.00000000E+00 0.00000000E+00 -.16568290E+02 0.16568290E+02 0.00000000E+00 0.0000E+00 0.9000E+01
       23  2    1    2    0    0 0.30259359E+02 -.24905805E+02 0.29027599E+03 0.30662973E+03 0.90695740E+02 0.0000E+00 0.0000E+00
      -13  1    3    3    0    0 0.51916382E+02 -.33213696E+02 0.26602688E+03 0.27307281E+03 0.00000000E+00 0.0000E+00 0.9000E+01
       13  1    3    3    0    0 -.21657023E+02 0.83078914E+01 0.24249105E+02 0.33556919E+02 0.00000000E+00 0.0000E+00 0.9000E+01
        3  1    1    2  503    0 -.11482339E+02 -.97931281E+01 0.90557245E+01 0.17599875E+02 0.00000000E+00 0.0000E+00 0.9000E+01
       21  1    1    2  501  503 -.18777020E+02 0.34698933E+02 0.90349204E+02 0.98587885E+02 0.00000000E+00 0.0000E+00 0.9000E+01
#aMCatNLO 2  0  0  5  1 0.22110268D+02 0.00000000D+00  -5  6  0 0.00000000D+00 0.00000000D+00 0.00000000D+00 0.00000000D+00 0.00000000D+00
  <mgrwgt>
 0.1366515591D+03    2    2    0
 0.820417845665015D+02 0.000000000000000D+00 0.000000000000000D+00 0.820417845665015D+02
 0.820417845665015D+02 -.000000000000000D+00 -.000000000000000D+00 -.820417845665015D+02
 0.814561679106106D+02 0.585644339895759D+02 -.386855599560459D+02 0.413369303776826D+02
 0.256512504827554D+02 -.192926861833405D+02 0.636185801886528D+01 -.156622371871965D+02
 0.569761507396370D+02 -.392717478062354D+02 0.323237019371806D+02 -.256746931904861D+02
 0.000000000000000D+00 0.000000000000000D+00 0.000000000000000D+00 0.000000000000000D+00
 0.820417845665015D+02 0.000000000000000D+00 0.000000000000000D+00 0.820417845665015D+02
 0.820417845665015D+02 -.000000000000000D+00 -.000000000000000D+00 -.820417845665015D+02
 0.718802289226516D+02 0.519163822030221D+02 -.332136964303440D+02 0.369906331164456D+02
 0.288818621272074D+02 -.216570234457272D+02 0.830789141991051D+01 -.172079701173967D+02
 0.238457273709531D+02 -.114823385635362D+02 -.979312810239812D+01 -.184626449061929D+02
 0.394757507121910D+02 -.187770201937587D+02 0.346989331128316D+02 -.132001809285604D+01
-.299427863110D-02 0.000000000000D+00 0.000000000000D+00 0.602834925218D-03 0.000000000000D+00  6 21 3 -13 13 3 21 4 0.62499877D-01 0.25489676D-02 0.48561770D+04 0.15100322D+04 0.47285589D+04 0.13050384D+01  1  2 13  3  6  5        3 -.855711923921D+02
0.777594442112D-02 0.000000000000D+00 0.000000000000D+00 0.575776773140D-03 0.850955476526D-05  6 21 3 -13 13 3 21 4 0.62499877D-01 0.25489676D-02 0.48561770D+04 0.15100322D+04 0.47285589D+04 0.13050384D+01  1  2  1  3  6  5        3 0.222222751477D+03
  </mgrwgt>
  </event>
  <event npLO=' -1 ' npNLO=' 1 '>
  6     66 0.11644275E+02 0.20784955E+02 0.75467711E-02 0.11397948E+00
       21 -1    0    0  501  502 0.00000000E+00 0.00000000E+00 0.72925950E+02 0.72925950E+02 0.00000000E+00 0.0000E+00 0.9000E+01
        1 -1    0    0  502    0 0.00000000E+00 0.00000000E+00 -.23806255E+03 0.23806255E+03 0.00000000E+00 0.0000E+00 0.9000E+01
       23  2    1    2    0    0 0.54493267E+01 0.20057896E+02 -.22714740E+03 0.24558701E+03 0.91022104E+02 0.0000E+00 0.0000E+00
      -11  1    3    3    0    0 -.10662062E+01 0.23949420E+01 0.86503640E+01 0.90388794E+01 0.00000000E+00 0.0000E+00 0.9000E+01
       11  1    3    3    0    0 0.65155329E+01 0.17662954E+02 -.23579777E+03 0.23654813E+03 0.00000000E+00 0.0000E+00 0.9000E+01
        1  1    1    2  501    0 -.54493267E+01 -.20057896E+02 0.62010806E+02 0.65401486E+02 0.00000000E+00 0.0000E+00 0.9000E+01
#aMCatNLO 1  0  0  1  2 0.15039138D+03 0.00000000D+00  -5  6  0 0.00000000D+00 0.00000000D+00 0.00000000D+00 0.00000000D+00 0.00000000D+00
  <mgrwgt>
 0.2310618454D+03   14    2    0
 0.131760910228313D+03 0.000000000000000D+00 0.000000000000000D+00 0.131760910228313D+03
 0.131760910228313D+03 0.000000000000000D+00 0.000000000000000D+00 -.131760910228313D+03
 0.160877728265432D+02 -.106620617460029D+01 0.239494199349604D+01 0.158727405245438D+02
 0.131392942622792D+03 0.651553285991058D+01 0.176629541004922D+02 -.130037199504879D+03
 0.116041105007290D+03 -.544932668531029D+01 -.200578960939882D+02 0.114164458980335D+03
 0.000000000000000D+00 -.000000000000000D+00 -.000000000000000D+00 0.000000000000000D+00
 0.376123604491524D+03 0.000000000000000D+00 0.000000000000000D+00 0.376123604491524D+03
 0.159535832604805D+03 0.000000000000000D+00 0.000000000000000D+00 -.159535832604805D+03
 0.180490337426709D+02 0.413969052847180D+01 0.752905635608195D+01 0.158727405245438D+02
 0.151679422211317D+03 0.496843479578554D+02 0.602365290773802D+02 -.130037199504879D+03
 0.119134670544636D+03 0.304152112616082D+02 0.153121179272508D+02 0.114164458980335D+03
 0.246796310597706D+03 -.842392497479354D+02 -.830777033607129D+02 0.216587771886720D+03
0.123325065536D-01 0.000000000000D+00 0.000000000000D+00 0.493937088848D-01 0.000000000000D+00  6 21 1 -11 11 1 21 2 0.11219377D-01 0.36625007D-01 0.44590396D+03 0.43201436D+03 0.32575575D+04 0.13831308D+01  1  2  2  1  6  1       21 0.205414136017D+03
0.193805609832D-02 0.598739910618D-03 0.271685624746D-04 0.493937088848D-01 0.000000000000D+00  6 21 1 -11 11 1 21 4 0.11219377D-01 0.36625007D-01 0.44590396D+03 0.43201436D+03 0.32575575D+04 0.13831308D+01  1  2  3  1  6  1       21 0.628727950976D+02
0.883183867626D-03 0.000000000000D+00 0.000000000000D+00 0.493937088848D-01 0.000000000000D+00  6 21 1 -11 11 1 21 4 0.11219377D-01 0.36625007D-01 0.44590396D+03 0.43201436D+03 0.32575575D+04 0.13831308D+01  1  2 15  1  6  1       21 0.281421054029D+02
0.462704208094D-01 0.000000000000D+00 -.305126779583D-01 0.493937088848D-01 0.000000000000D+00  6 21 1 -11 11 1 21 4 0.37810785D-01 0.36625007D-01 0.44590396D+03 0.43201436D+03 0.32575575D+04 0.13831308D+01  1  2  5  1  6  1       21 -.537599300426D+02
0.188099885137D-01 0.000000000000D+00 -.113818295605D-01 0.493937088848D-01 0.000000000000D+00  6 -1 1 -11 11 1 -1 4 0.37810785D-01 0.36625007D-01 0.44590396D+03 0.43201436D+03 0.32575575D+04 0.13831308D+01  1  2  5  4  6  1       21 -.137934664722D+01
0.188099885137D-01 0.000000000000D+00 -.113818295605D-01 0.493937088848D-01 0.000000000000D+00  6 1 1 -11 11 1 1 4 0.37810785D-01 0.36625007D-01 0.44590396D+03 0.43201436D+03 0.32575575D+04 0.13831308D+01  1  2  5  5  6  1       21 -.240042767380D+01
0.188099885137D-01 0.000000000000D+00 -.113818295605D-01 0.493937088848D-01 0.000000000000D+00  6 -2 1 -11 11 1 -2 4 0.37810785D-01 0.36625007D-01 0.44590396D+03 0.43201436D+03 0.32575575D+04 0.13831308D+01  1  2  5  6  6  1       21 -.120414534762D+01
0.188099885137D-01 0.000000000000D+00 -.113818295605D-01 0.493937088848D-01 0.000000000000D+00  6 -4 1 -11 11 1 -4 4 0.37810785D-01 0.36625007D-01 0.44590396D+03 0.43201436D+03 0.32575575D+04 0.13831308D+01  1  2  5  6  6  1       21 -.520832778739D+00
0.188099885137D-01 0.000000000000D+00 -.113818295605D-01 0.493937088848D-01 0.000000000000D+00  6 2 1 -11 11 1 2 4 0.37810785D-01 0.36625007D-01 0.44590396D+03 0.43201436D+03 0.32575575D+04 0.13831308D+01  1  2  5  7  6  1       21 -.317356732816D+01
0.188099885137D-01 0.000000000000D+00 -.113818295605D-01 0.493937088848D-01 0.000000000000D+00  6 4 1 -11 11 1 4 4 0.37810785D-01 0.36625007D-01 0.44590396D+03 0.43201436D+03 0.32575575D+04 0.13831308D+01  1  2  5  7  6  1       21 -.517919663810D+00
0.188099885137D-01 0.000000000000D+00 -.113818295605D-01 0.493937088848D-01 0.000000000000D+00  6 -3 1 -11 11 1 -3 4 0.37810785D-01 0.36625007D-01 0.44590396D+03 0.43201436D+03 0.32575575D+04 0.13831308D+01  1  2  5  8  6  1       21 -.877446580217D+00
0.188099885137D-01 0.000000000000D+00 -.113818295605D-01 0.493937088848D-01 0.000000000000D+00  6 -5 1 -11 11 1 -5 4 0.37810785D-01 0.36625007D-01 0.44590396D+03 0.43201436D+03 0.32575575D+04 0.13831308D+01  1  2  5  8  6  1       21 -.322837422623D+00
0.188099885137D-01 0.000000000000D+00 -.113818295605D-01 0.493937088848D-01 0.000000000000D+00  6 3 1 -11 11 1 3 4 0.37810785D-01 0.36625007D-01 0.44590396D+03 0.43201436D+03 0.32575575D+04 0.13831308D+01  1  2  5  9  6  1       21 -.888873740253D+00
0.188099885137D-01 0.000000000000D+00 -.113818295605D-01 0.493937088848D-01 0.000000000000D+00  6 5 1 -11 11 1 5 4 0.37810785D-01 0.36625007D-01 0.44590396D+03 0.43201436D+03 0.32575575D+04 0.13831308D+01  1  2  5  9  6  1       21 -.321863862157D+00
  </mgrwgt>
  </event>
  <event npLO=' -1 ' npNLO=' 1 '>
  6     66 0.11644275E+02 0.10755311E+02 0.75467711E-02 0.17514497E+00
       21 -1    0    0  501  502 0.00000000E+00 0.00000000E+00 0.88678426E+01 0.88678426E+01 0.00000000E+00 0.0000E+00 0.9000E+01
        3 -1    0    0  502    0 -.00000000E+00 -.00000000E+00 -.39464197E+03 0.39464197E+03 0.00000000E+00 0.0000E+00 0.9000E+01
       23  2    1    2    0    0 0.99003963E+01 -.42022451E+01 -.38050458E+03 0.39153297E+03 0.91644151E+02 0.0000E+00 0.0000E+00
      -13  1    3    3    0    0 0.35183903E+02 0.32364180E+02 -.20025128E+03 0.20587842E+03 0.00000000E+00 0.0000E+00 0.9000E+01
       13  1    3    3    0    0 -.25283507E+02 -.36566425E+02 -.18025330E+03 0.18565455E+03 0.00000000E+00 0.0000E+00 0.9000E+01
        3  1    1    2  501    0 -.99003963E+01 0.42022451E+01 -.52695439E+01 0.11976844E+02 0.00000000E+00 0.0000E+00 0.9000E+01
#aMCatNLO 1  0  0  5  1 0.74516283D+01 0.00000000D+00  -5  6  0 0.00000000D+00 0.00000000D+00 0.00000000D+00 0.00000000D+00 0.00000000D+00
  <mgrwgt>
 0.2504054207D+02    7    2    0
 0.591576105809073D+02 0.000000000000000D+00 0.000000000000000D+00 0.591576105809073D+02
 0.591576105809073D+02 -.000000000000000D+00 -.000000000000000D+00 -.591576105809073D+02
 0.492092091383596D+02 0.351839029613640D+02 0.323641803006815D+02 -.116704357199340D+02
 0.454410891885255D+02 -.252835066683468D+02 -.365664253995613D+02 -.940921945166040D+01
 0.236649228349296D+02 -.990039629301712D+01 0.420224509887977D+01 0.210796551715944D+02
 0.000000000000000D+00 0.000000000000000D+00 0.000000000000000D+00 0.000000000000000D+00
 0.591576105809073D+02 0.000000000000000D+00 0.000000000000000D+00 0.591576105809073D+02
 0.591576105809073D+02 -.000000000000000D+00 -.000000000000000D+00 -.591576105809073D+02
 0.483663653675960D+02 0.342407939589510D+02 0.327644850022110D+02 -.966239362023411D+01
 0.452909703846316D+02 -.261604702181304D+02 -.361941962816650D+02 -.754201245505434D+01
 0.152130590915471D+02 -.454264759850713D+01 -.462313371656085D+01 0.137632900992997D+02
 0.944482631803999D+01 -.353767614231353D+01 0.805284499601485D+01 0.344111597598876D+01
0.370821433718D-03 0.000000000000D+00 0.000000000000D+00 0.483051421829D-02 0.000000000000D+00  6 21 3 -13 13 3 21 2 0.13642835D-02 0.60714149D-01 0.26531193D+04 0.11567671D+03 0.26537140D+04 0.14835554D+01  1  2  2  3  6  5        3 0.253748186191D+02
0.698214419474D-04 0.180032819050D-04 0.816921138059D-06 0.483051421829D-02 0.000000000000D+00  6 21 3 -13 13 3 21 4 0.13642835D-02 0.60714149D-01 0.26531193D+04 0.11567671D+03 0.26537140D+04 0.14835554D+01  1  2  3  3  6  5        3 0.202158326870D+01
0.276679123750D-04 0.000000000000D+00 0.000000000000D+00 0.483051421829D-02 0.000000000000D+00  6 21 3 -13 13 3 21 4 0.13642835D-02 0.60714149D-01 0.26531193D+04 0.11567671D+03 0.26537140D+04 0.14835554D+01  1  2 15  3  6  5        3 0.416698611063D+01
0.237762646520D-03 0.000000000000D+00 0.000000000000D+00 0.510783195822D-02 0.000000000000D+00  6 21 3 -13 13 3 21 4 0.13642835D-02 0.60714149D-01 0.28797748D+04 0.72133633D+02 0.25265710D+04 0.15255463D+01  1  2 12  3  6  5        3 0.398399929359D+02
-.441724447465D-03 0.000000000000D+00 0.000000000000D+00 0.483051421829D-02 0.000000000000D+00  6 21 3 -13 13 3 21 4 0.13642835D-02 0.60714149D-01 0.26531193D+04 0.11567671D+03 0.26537140D+04 0.14835554D+01  1  2  4  3  6  5        3 -.665268709966D+02
-.223049763751D-03 0.000000000000D+00 0.000000000000D+00 0.483051421829D-02 0.000000000000D+00  6 21 3 -13 13 3 21 4 0.13642835D-02 0.60714149D-01 0.26531193D+04 0.11567671D+03 0.26537140D+04 0.14835554D+01  1  2  5  3  6  5        3 -.335928947199D+02
0.356934701074D-03 0.000000000000D+00 -.000000000000D+00 0.483051421829D-02 0.000000000000D+00  6 21 3 -13 13 3 21 4 0.13642835D-02 0.60714149D-01 0.26531193D+04 0.11567671D+03 0.26537140D+04 0.14835554D+01  1  2  6  3  6  5        3 0.537569268552D+02
  </mgrwgt>
  </event>
  <event npLO=' -1 ' npNLO=' 1 '>
  6     66 0.11644275E+02 0.43878532E+02 0.75467711E-02 0.13295731E+00
       21 -1    0    0  501  502 0.00000000E+00 0.00000000E+00 0.57077085E+02 0.57077085E+02 0.00000000E+00 0.0000E+00 0.9000E+01
        5 -1    0    0  502    0 -.00000000E+00 -.00000000E+00 -.19318108E+03 0.19318108E+03 0.00000000E+00 0.0000E+00 0.9000E+01
       23  2    1    2    0    0 -.38270294E+02 0.21464159E+02 -.16719304E+03 0.19648220E+03 0.93415285E+02 0.0000E+00 0.0000E+00
      -11  1    3    3    0    0 -.58806572E+02 -.84449875E+01 -.65097226E+02 0.88131604E+02 0.00000000E+00 0.0000E+00 0.9000E+01
       11  1    3    3    0    0 0.20536278E+02 0.29909147E+02 -.10209581E+03 0.10835059E+03 0.00000000E+00 0.0000E+00 0.9000E+01
        5  1    1    2  501    0 0.38270294E+02 -.21464159E+02 0.31089048E+02 0.53775965E+02 0.00000000E+00 0.0000E+00 0.9000E+01
#aMCatNLO 1  0  0  5  1 0.80239816D+01 0.00000000D+00  -5  6  0 0.00000000D+00 0.00000000D+00 0.00000000D+00 0.00000000D+00 0.00000000D+00
  <mgrwgt>
 0.1042531275D+02    6    2    0
 0.105005774784852D+03 0.000000000000000D+00 0.000000000000000D+00 0.105005774784852D+03
 0.105005774784852D+03 -.000000000000000D+00 -.000000000000000D+00 -.105005774784852D+03
 0.628330243279940D+02 -.588065720636641D+02 -.844498746971066D+01 -.204562512440526D+02
 0.629487874818558D+02 0.205362780648467D+02 0.299091465530422D+02 -.514417542580711D+02
 0.842297377598547D+02 0.382702939988174D+02 -.214641590833316D+02 0.718980055021237D+02
 0.000000000000000D+00 0.000000000000000D+00 -.000000000000000D+00 0.000000000000000D+00
 0.105005774784852D+03 0.000000000000000D+00 0.000000000000000D+00 0.105005774784852D+03
 0.105005774784852D+03 -.000000000000000D+00 -.000000000000000D+00 -.105005774784852D+03
 0.621895858830512D+02 -.583666760812039D+02 -.869170617398648D+01 -.196298232116926D+02
 0.623026853335175D+02 0.209769793075715D+02 0.296619762129775D+02 -.506138133915809D+02
 0.117914840639081D+02 -.151824957887884D+01 0.111174916154881D+01 0.116403620410806D+02
 0.737277942892277D+02 0.389079463525113D+02 -.220820192005398D+02 0.586032745621929D+02
0.185618906223D-02 0.000000000000D+00 0.000000000000D+00 0.508247228656D-03 0.000000000000D+00  6 21 5 -11 11 5 21 2 0.87810899D-02 0.29720166D-01 0.48698887D+04 0.19253255D+04 0.54085584D+04 0.12914090D+01  1  2  2  3  6  5        5 0.906032457725D+01
-.227725298188D-04 0.901174849069D-04 0.408919211051D-05 0.508247228656D-03 0.000000000000D+00  6 21 5 -11 11 5 21 4 0.87810899D-02 0.29720166D-01 0.48698887D+04 0.19253255D+04 0.54085584D+04 0.12914090D+01  1  2  3  3  6  5        5 -.862648169834D+00
0.147890675401D-03 0.000000000000D+00 0.000000000000D+00 0.508247228656D-03 0.000000000000D+00  6 21 5 -11 11 5 21 4 0.87810899D-02 0.29720166D-01 0.48698887D+04 0.19253255D+04 0.54085584D+04 0.12914090D+01  1  2 15  3  6  5        5 0.120389872953D+01
0.111789713106D-02 0.000000000000D+00 0.000000000000D+00 0.509177843800D-03 0.000000000000D+00  6 21 5 -11 11 5 21 4 0.87810899D-02 0.29720166D-01 0.50381271D+04 0.18846084D+04 0.53598432D+04 0.12925908D+01  1  2 12  3  6  5        5 0.912289042785D+01
-.996976168741D-03 0.000000000000D+00 0.000000000000D+00 0.508247228656D-03 0.000000000000D+00  6 21 5 -11 11 5 21 4 0.87810899D-02 0.29720166D-01 0.48698887D+04 0.19253255D+04 0.54085584D+04 0.12914090D+01  1  2  5  3  6  5        5 -.811584868125D+01
0.204587180664D-05 0.000000000000D+00 0.000000000000D+00 0.508247228656D-03 0.134256520234D-03  6 21 5 -11 11 5 21 4 0.87810899D-02 0.29720166D-01 0.50381271D+04 0.18846084D+04 0.53598432D+04 0.12925908D+01  1  2 11  3  6  5        5 0.166958692377D-01
  </mgrwgt>
  </event>
  <event npLO=' -1 ' npNLO=' 1 '>
  7     66 -.11644275E+02 0.82758718E+01 0.75467711E-02 0.17610534E+00
       21 -1    0    0  501  502 0.00000000E+00 0.00000000E+00 0.85350454E+02 0.85350454E+02 0.00000000E+00 0.0000E+00 0.9000E+01
       21 -1    0    0  502  503 0.00000000E+00 0.00000000E+00 -.40219641E+02 0.40219641E+02 0.00000000E+00 0.0000E+00 0.9000E+01
       23  2    1    2    0    0 -.99869360E+01 0.13255265E+01 0.16403716E+02 0.91121592E+02 0.89064958E+02 0.0000E+00 0.0000E+00
      -11  1    3    3    0    0 -.25187365E+02 0.18227977E+02 0.44934443E+02 0.54642169E+02 0.00000000E+00 0.0000E+00 0.9000E+01
       11  1    3    3    0    0 0.15200429E+02 -.16902450E+02 -.28530727E+02 0.36479422E+02 0.00000000E+00 0.0000E+00 0.9000E+01
        5  1    1    2  501    0 0.10255027E+02 0.45758515E+01 0.25148128E+02 0.27541466E+02 0.00000000E+00 0.0000E+00 0.9000E+01
       -5  1    1    2    0  503 -.26809146E+00 -.59013780E+01 0.35789701E+01 0.69070371E+01 0.00000000E+00 0.0000E+00 0.9000E+01
#aMCatNLO 2  0  0  2  1 0.93119705D+01 0.00000000D+00  -5  6  0 0.00000000D+00 0.00000000D+00 0.00000000D+00 0.00000000D+00 0.00000000D+00
  <mgrwgt>
 -.7685801385D+02    2    2    0
 0.554965481382384D+02 0.000000000000000D+00 0.000000000000000D+00 0.554965481382384D+02
 0.554965481382384D+02 0.000000000000000D+00 0.000000000000000D+00 -.554965481382384D+02
 0.406879384071018D+02 -.252865981220950D+02 0.160436062327543D+02 0.275444910332374D+02
 0.505431145551683D+02 0.150795592380298D+02 -.195631060296518D+02 -.440964647630195D+02
 0.197620433142066D+02 0.102070388840652D+02 0.351949979689753D+01 0.165519737297821D+02
 0.000000000000000D+00 -.000000000000000D+00 -.000000000000000D+00 0.000000000000000D+00
 0.592124667700187D+02 0.000000000000000D+00 0.000000000000000D+00 0.592124667700187D+02
 0.579736798647576D+02 0.000000000000000D+00 0.000000000000000D+00 -.579736798647576D+02
 0.415374708221156D+02 -.251873651905353D+02 0.182279765957887D+02 0.275444910332374D+02
 0.496109269400085D+02 0.152004291642276D+02 -.169024501322719D+02 -.440964647630195D+02
 0.200017959221995D+02 0.102550274848456D+02 0.457585151059152D+01 0.165519737297821D+02
 0.603595295045269D+01 -.268091458537932D+00 -.590137797410835D+01 0.123878690526108D+01
-.232022670560D-04 0.000000000000D+00 0.000000000000D+00 0.192452169814D-02 0.000000000000D+00  6 21 21 -11 11 5 -5 4 0.12306804D-01 0.66019467D-02 0.12588414D+04 0.11030879D+03 0.25092525D+04 0.14876172D+01  1  2 13 10  6  2        5 -.961726025528D+02
0.468501594715D-05 0.000000000000D+00 0.000000000000D+00 0.192452169814D-02 0.543492176629D-05  6 21 21 -11 11 5 -5 4 0.13130839D-01 0.61876370D-02 0.12588414D+04 0.11030879D+03 0.25092525D+04 0.14876172D+01  1  2  1 10  6  2        5 0.193145887046D+02
  </mgrwgt>
  </event>
  <event npLO=' -1 ' npNLO=' 1 '>
  6     66 0.11644275E+02 0.14629735E+02 0.75467711E-02 0.16930934E+00
       21 -1    0    0  501  502 0.00000000E+00 0.00000000E+00 0.86747047E+01 0.86747047E+01 0.00000000E+00 0.0000E+00 0.9000E+01
        1 -1    0    0  502    0 -.00000000E+00 -.00000000E+00 -.34070725E+03 0.34070725E+03 0.00000000E+00 0.0000E+00 0.9000E+01
       23  2    1    2    0    0 -.11711488E+02 -.87675651E+01 -.30208466E+03 0.31605172E+03 0.91757912E+02 0.0000E+00 0.0000E+00
      -11  1    3    3    0    0 -.13625998E+02 0.10895054E+02 -.47769661E+01 0.18088378E+02 0.00000000E+00 0.0000E+00 0.9000E+01
       11  1    3    3    0    0 0.19145099E+01 -.19662619E+02 -.29730770E+03 0.29796334E+03 0.00000000E+00 0.0000E+00 0.9000E+01
        1  1    1    2  501    0 0.11711488E+02 0.87675651E+01 -.29947881E+02 0.33330238E+02 0.00000000E+00 0.0000E+00 0.9000E+01
#aMCatNLO 1  0  0  5  1 0.32760447D+01 0.00000000D+00  -5  6  0 0.00000000D+00 0.00000000D+00 0.00000000D+00 0.00000000D+00 0.00000000D+00
  <mgrwgt>
 0.2013232223D+03    8    2    0
 0.543648303109964D+02 0.000000000000000D+00 0.000000000000000D+00 0.543648303109964D+02
 0.543648303109964D+02 -.000000000000000D+00 -.000000000000000D+00 -.543648303109964D+02
 0.435359102258919D+02 -.136259982118419D+02 0.108950537863497D+02 0.398874097293914D+02
 0.495465722732511D+02 0.191450990265567D+01 -.196626188535090D+02 -.454376374350908D+02
 0.156471781228499D+02 0.117114883091863D+02 0.876756506715928D+01 0.555022770569945D+01
 0.000000000000000D+00 0.000000000000000D+00 0.000000000000000D+00 0.000000000000000D+00
 0.543648303109964D+02 0.000000000000000D+00 0.000000000000000D+00 0.543648303109964D+02
 0.543648303109964D+02 -.000000000000000D+00 -.000000000000000D+00 -.543648303109964D+02
 0.437466670888615D+02 -.129699143528894D+02 0.113862174857036D+02 0.401983364634739D+02
 0.490402782537848D+02 0.265556548700796D+01 -.191078428179906D+02 -.450864414873897D+02
 0.337823191324383D+01 -.265141410470072D+00 0.116799346347161D+01 0.315878808428179D+01
 0.125644833661028D+02 0.105794902763515D+02 0.655363186881540D+01 0.172931693963402D+01
0.299054067760D-03 0.000000000000D+00 0.000000000000D+00 0.283952387169D-02 0.000000000000D+00  6 21 1 -11 11 1 21 2 0.13345700D-02 0.52416500D-01 0.67162724D+03 0.21402916D+03 0.28915677D+04 0.14339110D+01  1  2  2  3  6  5        1 0.920277382614D+02
0.297860732943D-07 0.145189953901D-04 0.658817336760D-06 0.283952387169D-02 0.000000000000D+00  6 21 1 -11 11 1 21 4 0.13345700D-02 0.52416500D-01 0.67162724D+03 0.21402916D+03 0.28915677D+04 0.14339110D+01  1  2  3  3  6  5        1 -.987821500925D+01
0.220636688432D-04 0.000000000000D+00 0.000000000000D+00 0.283952387169D-02 0.000000000000D+00  6 21 1 -11 11 1 21 4 0.13345700D-02 0.52416500D-01 0.67162724D+03 0.21402916D+03 0.28915677D+04 0.14339110D+01  1  2 15  3  6  5        1 0.139601835311D+02
0.229363785325D-05 0.000000000000D+00 0.000000000000D+00 0.293827169410D-02 0.000000000000D+00  6 21 1 -11 11 1 21 4 0.13345700D-02 0.52416500D-01 0.62983090D+03 0.15626039D+03 0.27618123D+04 0.14586309D+01  1  2 12  3  6  5        1 0.154756111926D+01
-.401089087083D-03 0.000000000000D+00 0.000000000000D+00 0.283952387169D-02 0.000000000000D+00  6 21 1 -11 11 1 21 4 0.13345700D-02 0.52416500D-01 0.67162724D+03 0.21402916D+03 0.28915677D+04 0.14339110D+01  1  2  4  3  6  5        1 -.253778159371D+03
-.736987799934D-04 0.000000000000D+00 0.000000000000D+00 0.283952387169D-02 0.000000000000D+00  6 21 1 -11 11 1 21 4 0.13345700D-02 0.52416500D-01 0.67162724D+03 0.21402916D+03 0.28915677D+04 0.14339110D+01  1  2  5  3  6  5        1 -.466308890891D+02
0.204814779387D-03 0.000000000000D+00 -.000000000000D+00 0.283952387169D-02 0.000000000000D+00  6 21 1 -11 11 1 21 4 0.13345700D-02 0.52416500D-01 0.67162724D+03 0.21402916D+03 0.28915677D+04 0.14339110D+01  1  2  6  3  6  5        1 0.129590954725D+03
0.406812367542D-03 0.000000000000D+00 0.000000000000D+00 0.283952387169D-02 0.100402548450D-01  6 21 1 -11 11 1 21 4 0.13345700D-02 0.52416500D-01 0.62983090D+03 0.15626039D+03 0.27618123D+04 0.14586309D+01  1  2 11  3  6  5        1 0.274484048104D+03
  </mgrwgt>
  </event>
  <event npLO=' -1 ' npNLO=' 1 '>
  6     66 -.11644275E+02 0.10712077E+02 0.75467711E-02 0.13020615E+00
       21 -1    0    0  501  502 0.00000000E+00 0.00000000E+00 0.32763559E+02 0.32763559E+02 0.00000000E+00 0.0000E+00 0.9000E+01
        1 -1    0    0  502    0 0.00000000E+00 0.00000000E+00 -.14088210E+03 0.14088210E+03 0.00000000E+00 0.0000E+00 0.9000E+01
       23  2    1    2    0    0 0.54776627E+00 -.10698062E+02 -.12403977E+03 0.15445624E+03 0.91411802E+02 0.0000E+00 0.0000E+00
      -13  1    3    3    0    0 -.41493520E+02 -.19317454E+02 -.43231487E+02 0.62959016E+02 0.00000000E+00 0.0000E+00 0.9000E+01
       13  1    3    3    0    0 0.42041287E+02 0.86193912E+01 -.80808283E+02 0.91497225E+02 0.00000000E+00 0.0000E+00 0.9000E+01
        1  1    1    2  501    0 -.54776627E+00 0.10698062E+02 0.15921223E+02 0.19189422E+02 0.00000000E+00 0.0000E+00 0.9000E+01
#aMCatNLO 1  0  0  1  2 0.24323462D+02 0.00000000D+00  -5  6  0 0.00000000D+00 0.00000000D+00 0.00000000D+00 0.00000000D+00 0.00000000D+00
  <mgrwgt>
 -.1293923112D+04   14    2    0
 0.679396725853851D+02 0.000000000000000D+00 0.000000000000000D+00 0.679396725853851D+02
 0.679396725853851D+02 0.000000000000000D+00 0.000000000000000D+00 -.679396725853851D+02
 0.460587633213241D+02 -.414935203222370D+02 -.193174535662412D+02 -.515106180063640D+01
 0.526292082978968D+02 0.420412865950140D+02 0.861939119922410D+01 -.304642394103978D+02
 0.371913735515492D+02 -.547766272777069D+00 0.106980623670171D+02 0.356153012110342D+02
 0.000000000000000D+00 0.000000000000000D+00 -.000000000000000D+00 0.000000000000000D+00
 0.433855517865621D+03 0.000000000000000D+00 0.000000000000000D+00 0.433855517865621D+03
 0.739949911897844D+02 0.000000000000000D+00 0.000000000000000D+00 -.739949911897844D+02
 0.633753537018572D+02 -.607056751847401D+02 -.174563174675060D+02 -.515106180063640D+01
 0.410761205101945D+02 0.255904636023867D+02 0.102130292239330D+02 -.304642394103978D+02
 0.401538128887212D+02 -.141264174300289D+02 0.120134649349100D+02 0.356153012110342D+02
 0.363245221954632D+03 0.492416290123823D+02 -.477017669133709D+01 0.359860526675836D+03
0.282834046976D-03 0.000000000000D+00 0.000000000000D+00 0.109100079635D-01 0.000000000000D+00  6 21 1 -13 13 1 21 2 0.50405475D-02 0.21674170D-01 0.24699741D+04 0.11474859D+03 0.26393590D+04 0.14842417D+01  1  2  2  1  6  1       21 0.366976189483D+02
0.666221049634D-04 0.137315176983D-04 0.623084564504D-06 0.109100079635D-01 0.000000000000D+00  6 21 1 -13 13 1 21 4 0.50405475D-02 0.21674170D-01 0.24699741D+04 0.11474859D+03 0.26393590D+04 0.14842417D+01  1  2  3  1  6  1       21 0.700821544716D+01
0.207174660080D-04 0.000000000000D+00 0.000000000000D+00 0.109100079635D-01 0.000000000000D+00  6 21 1 -13 13 1 21 4 0.50405475D-02 0.21674170D-01 0.24699741D+04 0.11474859D+03 0.26393590D+04 0.14842417D+01  1  2 15  1  6  1       21 0.592177758705D+01
-.882607252953D-01 0.000000000000D+00 -.287617376556D-02 0.109100079635D-01 0.000000000000D+00  6 21 1 -13 13 1 21 4 0.34212234D-01 0.21674170D-01 0.24699741D+04 0.11474859D+03 0.26393590D+04 0.14842417D+01  1  2  5  1  6  1       21 -.100394308215D+04
-.384654671471D-01 0.000000000000D+00 -.123109206517D-02 0.109100079635D-01 0.000000000000D+00  6 -1 1 -13 13 1 -1 4 0.34212234D-01 0.21674170D-01 0.24699741D+04 0.11474859D+03 0.26393590D+04 0.14842417D+01  1  2  5  4  6  1       21 -.409519916850D+02
-.384654671471D-01 0.000000000000D+00 -.123109206517D-02 0.109100079635D-01 0.000000000000D+00  6 1 1 -13 13 1 1 4 0.34212234D-01 0.21674170D-01 0.24699741D+04 0.11474859D+03 0.26393590D+04 0.14842417D+01  1  2  5  5  6  1       21 -.684223480733D+02
-.384654671471D-01 0.000000000000D+00 -.123109206517D-02 0.109100079635D-01 0.000000000000D+00  6 -2 1 -13 13 1 -2 4 0.34212234D-01 0.21674170D-01 0.24699741D+04 0.11474859D+03 0.26393590D+04 0.14842417D+01  1  2  5  6  6  1       21 -.361398082516D+02
-.384654671471D-01 0.000000000000D+00 -.123109206517D-02 0.109100079635D-01 0.000000000000D+00  6 -4 1 -13 13 1 -4 4 0.34212234D-01 0.21674170D-01 0.24699741D+04 0.11474859D+03 0.26393590D+04 0.14842417D+01  1  2  5  6  6  1       21 -.159012623236D+02
-.384654671471D-01 0.000000000000D+00 -.123109206517D-02 0.109100079635D-01 0.000000000000D+00  6 2 1 -13 13 1 2 4 0.34212234D-01 0.21674170D-01 0.24699741D+04 0.11474859D+03 0.26393590D+04 0.14842417D+01  1  2  5  7  6  1       21 -.889203091667D+02
-.384654671471D-01 0.000000000000D+00 -.123109206517D-02 0.109100079635D-01 0.000000000000D+00  6 4 1 -13 13 1 4 4 0.34212234D-01 0.21674170D-01 0.24699741D+04 0.11474859D+03 0.26393590D+04 0.14842417D+01  1  2  5  7  6  1       21 -.158179869874D+02
-.384654671471D-01 0.000000000000D+00 -.123109206517D-02 0.109100079635D-01 0.000000000000D+00  6 -3 1 -13 13 1 -3 4 0.34212234D-01 0.21674170D-01 0.24699741D+04 0.11474859D+03 0.26393590D+04 0.14842417D+01  1  2  5  8  6  1       21 -.268597249639D+02
-.384654671471D-01 0.000000000000D+00 -.123109206517D-02 0.109100079635D-01 0.000000000000D+00  6 -5 1 -13 13 1 -5 4 0.34212234D-01 0.21674170D-01 0.24699741D+04 0.11474859D+03 0.26393590D+04 0.14842417D+01  1  2  5  8  6  1       21 -.977381667342D+01
-.384654671471D-01 0.000000000000D+00 -.123109206517D-02 0.109100079635D-01 0.000000000000D+00  6 3 1 -13 13 1 3 4 0.34212234D-01 0.21674170D-01 0.24699741D+04 0.11474859D+03 0.26393590D+04 0.14842417D+01  1  2  5  9  6  1       21 -.270740351982D+02
-.384654671471D-01 0.000000000000D+00 -.123109206517D-02 0.109100079635D-01 0.000000000000D+00  6 5 1 -13 13 1 5 4 0.34212234D-01 0.21674170D-01 0.24699741D+04 0.11474859D+03 0.26393590D+04 0.14842417D+01  1  2  5  9  6  1       21 -.974635861018D+01
  </mgrwgt>
  </event>
  <event npLO=' -1 ' npNLO=' 1 '>
  6     66 -.11644275E+02 0.10803874E+02 0.75467711E-02 0.17496404E+00
       21 -1    0    0  501  502 0.00000000E+00 0.00000000E+00 0.12789083E+02 0.12789083E+02 0.00000000E+00 0.0000E+00 0.9000E+01
        1 -1    0    0  502    0 -.00000000E+00 -.00000000E+00 -.24964865E+03 0.24964865E+03 0.00000000E+00 0.0000E+00 0.9000E+01
       23  2    1    2    0    0 -.60451152E+01 0.89543434E+01 -.23263887E+03 0.25083868E+03 0.93179817E+02 0.0000E+00 0.0000E+00
      -13  1    3    3    0    0 -.33690187E+02 -.11348572E+02 -.20118075E+03 0.20429761E+03 0.00000000E+00 0.0000E+00 0.9000E+01
       13  1    3    3    0    0 0.27645072E+02 0.20302916E+02 -.31458116E+02 0.46541072E+02 0.00000000E+00 0.0000E+00 0.9000E+01
        1  1    1    2  501    0 0.60451152E+01 -.89543434E+01 -.42207022E+01 0.11599052E+02 0.00000000E+00 0.0000E+00 0.9000E+01
#aMCatNLO 1  0  0  5  1 0.27247140D+01 0.00000000D+00  -5  6  0 0.00000000D+00 0.00000000D+00 0.00000000D+00 0.00000000D+00 0.00000000D+00
  <mgrwgt>
 -.1801865981D+04    7    2    0
 0.565046653809133D+02 0.000000000000000D+00 0.000000000000000D+00 0.565046653809133D+02
 0.565046653809133D+02 -.000000000000000D+00 -.000000000000000D+00 -.565046653809133D+02
 0.527727733389297D+02 -.336901867655722D+02 -.113485721479862D+02 -.390018824133511D+02
 0.421467657066512D+02 0.276450715502582D+02 0.203029155510871D+02 0.244926825529152D+02
 0.180897917162457D+02 0.604511521531397D+01 -.895434340310097D+01 0.145091998604359D+02
 0.000000000000000D+00 0.000000000000000D+00 0.000000000000000D+00 0.000000000000000D+00
 0.565046653809133D+02 0.000000000000000D+00 0.000000000000000D+00 0.565046653809133D+02
 0.565046653809133D+02 -.000000000000000D+00 -.000000000000000D+00 -.565046653809133D+02
 0.525007232714359D+02 -.335598965599487D+02 -.115415648704834D+02 -.386891660190532D+02
 0.422874239263032D+02 0.277495702919467D+02 0.201481265048999D+02 0.247434954943263D+02
 0.915617110987148D+01 0.541010132798915D+01 -.443449167498066D+01 0.590775393856772D+01
 0.906501245421586D+01 0.400224940012898D+00 -.417206995943580D+01 0.803791658615923D+01
0.357862609558D-03 0.000000000000D+00 0.000000000000D+00 0.128860728614D-02 0.000000000000D+00  6 21 1 -13 13 1 21 2 0.19675512D-02 0.38407485D-01 0.16262525D+04 0.11672368D+03 0.27357050D+04 0.14827889D+01  1  2  2  3  6  5        1 0.968581069423D+02
0.412248781244D-04 0.173741344413D-04 0.788372795331D-06 0.128860728614D-02 0.000000000000D+00  6 21 1 -13 13 1 21 4 0.19675512D-02 0.38407485D-01 0.16262525D+04 0.11672368D+03 0.27357050D+04 0.14827889D+01  1  2  3  3  6  5        1 -.245915151823D+01
0.284927650969D-04 0.000000000000D+00 0.000000000000D+00 0.128860728614D-02 0.000000000000D+00  6 21 1 -13 13 1 21 4 0.19675512D-02 0.38407485D-01 0.16262525D+04 0.11672368D+03 0.27357050D+04 0.14827889D+01  1  2 15  3  6  5        1 0.169555906368D+02
0.634105979776D-05 0.000000000000D+00 0.000000000000D+00 0.140789161347D-02 0.000000000000D+00  6 21 1 -13 13 1 21 4 0.19675512D-02 0.38407485D-01 0.16389632D+04 0.55859347D+02 0.25478764D+04 0.15498999D+01  1  2 12  3  6  5        1 0.447650261294D+01
-.391220121590D-02 0.000000000000D+00 0.000000000000D+00 0.128860728614D-02 0.000000000000D+00  6 21 1 -13 13 1 21 4 0.19675512D-02 0.38407485D-01 0.16262525D+04 0.11672368D+03 0.27357050D+04 0.14827889D+01  1  2  4  3  6  5        1 -.232808862460D+04
-.718972667623D-03 0.000000000000D+00 0.000000000000D+00 0.128860728614D-02 0.000000000000D+00  6 21 1 -13 13 1 21 4 0.19675512D-02 0.38407485D-01 0.16262525D+04 0.11672368D+03 0.27357050D+04 0.14827889D+01  1  2  5  3  6  5        1 -.427849181706D+03
0.140860899896D-02 0.000000000000D+00 -.000000000000D+00 0.128860728614D-02 0.000000000000D+00  6 21 1 -13 13 1 21 4 0.19675512D-02 0.38407485D-01 0.16262525D+04 0.11672368D+03 0.27357050D+04 0.14827889D+01  1  2  6  3  6  5        1 0.838240776999D+03
  </mgrwgt>
  </event>
  <event npLO=' -1 ' npNLO=' 1 '>
  6     66 -.11644275E+02 0.29556891E+02 0.75467711E-02 0.15624116E+00
       21 -1    0    0  501  502 0.00000000E+00 0.00000000E+00 0.57491611E+01 0.57491611E+01 0.00000000E+00 0.0000E+00 0.9000E+01
        1 -1    0    0  502    0 -.00000000E+00 -.00000000E+00 -.72102118E+03 0.72102118E+03 0.00000000E+00 0.0000E+00 0.9000E+01
       23  2    1    2    0    0 0.91824401E+00 0.29542624E+02 -.47065064E+03 0.48036980E+03 0.91485003E+02 0.0000E+00 0.0000E+00
      -11  1    3    3    0    0 -.10939981E+02 -.32619177E+01 -.35309512E+01 0.11949515E+02 0.00000000E+00 0.0000E+00 0.9000E+01
       11  1    3    3    0    0 0.11858225E+02 0.32804542E+02 -.46711969E+03 0.46842028E+03 0.00000000E+00 0.0000E+00 0.9000E+01
        1  1    1    2  501    0 -.91824401E+00 -.29542624E+02 -.24462138E+03 0.24640055E+03 0.00000000E+00 0.0000E+00 0.9000E+01
#aMCatNLO 1  0  0  5  1 0.68759747D+01 0.00000000D+00  -5  6  0 0.00000000D+00 0.00000000D+00 0.00000000D+00 0.00000000D+00 0.00000000D+00
  <mgrwgt>
 -.8330173426D+03    8    2    0
 0.643837473913312D+02 0.000000000000000D+00 0.000000000000000D+00 0.643837473913312D+02
 0.643837473913312D+02 -.000000000000000D+00 -.000000000000000D+00 -.643837473913312D+02
 0.478301034216507D+02 -.109399811379846D+02 -.326191774039891D+01 0.464477717299896D+02
 0.490521630112717D+02 0.118582251504211D+02 0.328045420454838D+02 -.344870876351190D+02
 0.318852283497399D+02 -.918244012436483D+00 -.295426243050849D+02 -.119606840948706D+02
 0.000000000000000D+00 0.000000000000000D+00 -.000000000000000D+00 0.000000000000000D+00
 0.643837473913312D+02 0.000000000000000D+00 0.000000000000000D+00 0.643837473913312D+02
 0.643837473913312D+02 -.000000000000000D+00 -.000000000000000D+00 -.643837473913312D+02
 0.474527512300099D+02 -.109785713093052D+02 -.450347762835111D+01 0.459451113890765D+02
 0.485708327802929D+02 0.118186872068299D+02 0.315324895218726D+02 -.350020932835637D+02
 0.226022471824590D+02 -.182561359615981D+01 -.174795258264777D+02 -.142124906183255D+02
 0.101416635899005D+02 0.985497698635143D+00 -.954948606704370D+01 0.326947251281261D+01
0.662269440107D-03 0.000000000000D+00 0.000000000000D+00 0.781454571068D-03 0.000000000000D+00  6 21 1 -11 11 1 21 2 0.88448632D-03 0.11092634D+00 0.14384891D+04 0.87361070D+03 0.39499986D+04 0.13374625D+01  1  2  2  3  6  5        1 0.123549375171D+03
-.588449305127D-04 0.321530050400D-04 0.145898229045D-05 0.781454571068D-03 0.000000000000D+00  6 21 1 -11 11 1 21 4 0.88448632D-03 0.11092634D+00 0.14384891D+04 0.87361070D+03 0.39499986D+04 0.13374625D+01  1  2  3  3  6  5        1 -.244964150671D+02
0.455316600153D-04 0.000000000000D+00 0.000000000000D+00 0.781454571068D-03 0.000000000000D+00  6 21 1 -11 11 1 21 4 0.88448632D-03 0.11092634D+00 0.14384891D+04 0.87361070D+03 0.39499986D+04 0.13374625D+01  1  2 15  3  6  5        1 0.151943641953D+02
0.903352085192D-03 0.000000000000D+00 0.000000000000D+00 0.857720634635D-03 0.000000000000D+00  6 21 1 -11 11 1 21 4 0.88448632D-03 0.11092634D+00 0.13218957D+04 0.33337276D+03 0.31107232D+04 0.14012082D+01  1  2 12  3  6  5        1 0.356569691685D+03
-.444699967165D-02 0.000000000000D+00 0.000000000000D+00 0.781454571068D-03 0.000000000000D+00  6 21 1 -11 11 1 21 4 0.88448632D-03 0.11092634D+00 0.14384891D+04 0.87361070D+03 0.39499986D+04 0.13374625D+01  1  2  4  3  6  5        1 -.148400766774D+04
-.911992849466D-03 0.000000000000D+00 0.000000000000D+00 0.781454571068D-03 0.000000000000D+00  6 21 1 -11 11 1 21 4 0.88448632D-03 0.11092634D+00 0.14384891D+04 0.87361070D+03 0.39499986D+04 0.13374625D+01  1  2  5  3  6  5        1 -.304341012246D+03
0.124880480019D-02 0.000000000000D+00 -.000000000000D+00 0.781454571068D-03 0.000000000000D+00  6 21 1 -11 11 1 21 4 0.88448632D-03 0.11092634D+00 0.14384891D+04 0.87361070D+03 0.39499986D+04 0.13374625D+01  1  2  6  3  6  5        1 0.416738483433D+03
0.171706810721D-03 0.000000000000D+00 0.000000000000D+00 0.781454571068D-03 0.391328265513D-03  6 21 1 -11 11 1 21 4 0.88448632D-03 0.11092634D+00 0.13218957D+04 0.33337276D+03 0.31107232D+04 0.14012082D+01  1  2 11  3  6  5        1 0.677758379733D+02
  </mgrwgt>
  </event>
  <event npLO=' -1 ' npNLO=' 1 '>
  6     66 0.11644275E+02 0.16086824E+02 0.75467711E-02 0.10896728E+00
       21 -1    0    0  501  502 0.00000000E+00 0.00000000E+00 0.20025254E+02 0.20025254E+02 0.00000000E+00 0.0000E+00 0.9000E+01
        3 -1    0    0  502    0 0.00000000E+00 0.00000000E+00 -.16832161E+03 0.16832161E+03 0.00000000E+00 0.0000E+00 0.9000E+01
       23  2    1    2    0    0 -.48135621E+01 -.15349772E+02 -.10989606E+03 0.14671313E+03 0.95858282E+02 0.0000E+00 0.0000E+00
      -11  1    3    3    0    0 0.35643062E+01 0.85475747E+01 -.11933058E+03 0.11968940E+03 0.00000000E+00 0.0000E+00 0.9000E+01
       11  1    3    3    0    0 -.83778683E+01 -.23897347E+02 0.94345116E+01 0.27023728E+02 0.00000000E+00 0.0000E+00 0.9000E+01
        3  1    1    2  501    0 0.48135621E+01 0.15349772E+02 -.38400288E+02 0.41633737E+02 0.00000000E+00 0.0000E+00 0.9000E+01
#aMCatNLO 1  0  0  1  1 0.18027911D+03 0.00000000D+00  -5  6  0 0.00000000D+00 0.00000000D+00 0.00000000D+00 0.00000000D+00 0.00000000D+00
  <mgrwgt>
 0.1131377611D+03   14    2    0
 0.580575836335822D+02 0.000000000000000D+00 0.000000000000000D+00 0.580575836335822D+02
 0.580575836335822D+02 0.000000000000000D+00 0.000000000000000D+00 -.580575836335822D+02
 0.417416016371624D+02 0.356430618330639D+01 0.854757469329231D+01 -.407013021355557D+02
 0.558836387470431D+02 -.837786830170183D+01 -.238973470591065D+02 0.498167562760360D+02
 0.184899268829588D+02 0.481356211839543D+01 0.153497723658142D+02 -.911545414048033D+01
 0.000000000000000D+00 0.000000000000000D+00 0.000000000000000D+00 0.000000000000000D+00
 0.329913820944141D+03 0.000000000000000D+00 0.000000000000000D+00 0.329913820944141D+03
 0.124769342814544D+03 0.000000000000000D+00 0.000000000000000D+00 -.124769342814544D+03
 0.580270289420585D+02 -.236325514638861D+02 -.339417531017400D+02 -.407013021355557D+02
 0.127760715173247D+03 -.584391884008574D+02 -.102107553074015D+03 0.498167562760360D+02
 0.101016891940895D+02 -.298049206312620D+01 0.317321405650889D+01 -.911545414048033D+01
 0.258793730449289D+03 0.850522319278697D+02 0.132876092119246D+03 0.205144478129597D+03
0.456984346546D-03 0.000000000000D+00 0.000000000000D+00 0.773581813234D-04 0.000000000000D+00  6 21 3 -11 11 3 21 2 0.30808084D-02 0.25895632D-01 0.64189076D+03 0.25878615D+03 0.32084055D+04 0.14196075D+01  1  2  2  1  6  1       21 0.446006753109D+02
0.555527807534D-06 0.221864683886D-04 0.100673838810D-05 0.773581813234D-04 0.000000000000D+00  6 21 3 -11 11 3 21 4 0.30808084D-02 0.25895632D-01 0.64189076D+03 0.25878615D+03 0.32084055D+04 0.14196075D+01  1  2  3  1  6  1       21 -.353625649066D+01
0.297247686511D-04 0.000000000000D+00 0.000000000000D+00 0.773581813234D-04 0.000000000000D+00  6 21 3 -11 11 3 21 4 0.30808084D-02 0.25895632D-01 0.64189076D+03 0.25878615D+03 0.32084055D+04 0.14196075D+01  1  2 15  1  6  1       21 0.584648969997D+01
0.389061423626D-01 0.000000000000D+00 -.146699029285D-01 0.773581813234D-04 0.000000000000D+00  6 21 3 -11 11 3 21 4 0.36447763D-01 0.25895632D-01 0.64189076D+03 0.25878615D+03 0.32084055D+04 0.14196075D+01  1  2  5  1  6  1       21 0.489201355425D+02
0.171270284032D-01 0.000000000000D+00 -.644441648379D-02 0.773581813234D-04 0.000000000000D+00  6 -3 3 -11 11 3 -3 4 0.36447763D-01 0.25895632D-01 0.64189076D+03 0.25878615D+03 0.32084055D+04 0.14196075D+01  1  2  5  4  6  1       21 0.133065490555D+01
0.171270284032D-01 0.000000000000D+00 -.644441648379D-02 0.773581813234D-04 0.000000000000D+00  6 3 3 -11 11 3 3 4 0.36447763D-01 0.25895632D-01 0.64189076D+03 0.25878615D+03 0.32084055D+04 0.14196075D+01  1  2  5  5  6  1       21 0.134538557681D+01
0.171270284032D-01 0.000000000000D+00 -.644441648379D-02 0.773581813234D-04 0.000000000000D+00  6 -2 3 -11 11 3 -2 4 0.36447763D-01 0.25895632D-01 0.64189076D+03 0.25878615D+03 0.32084055D+04 0.14196075D+01  1  2  5  6  6  1       21 0.181142668545D+01
0.171270284032D-01 0.000000000000D+00 -.644441648379D-02 0.773581813234D-04 0.000000000000D+00  6 -4 3 -11 11 3 -4 4 0.36447763D-01 0.25895632D-01 0.64189076D+03 0.25878615D+03 0.32084055D+04 0.14196075D+01  1  2  5  6  6  1       21 0.790869813757D+00
0.171270284032D-01 0.000000000000D+00 -.644441648379D-02 0.773581813234D-04 0.000000000000D+00  6 2 3 -11 11 3 2 4 0.36447763D-01 0.25895632D-01 0.64189076D+03 0.25878615D+03 0.32084055D+04 0.14196075D+01  1  2  5  7  6  1       21 0.465387331531D+01
0.171270284032D-01 0.000000000000D+00 -.644441648379D-02 0.773581813234D-04 0.000000000000D+00  6 4 3 -11 11 3 4 4 0.36447763D-01 0.25895632D-01 0.64189076D+03 0.25878615D+03 0.32084055D+04 0.14196075D+01  1  2  5  7  6  1       21 0.786563618989D+00
0.171270284032D-01 0.000000000000D+00 -.644441648379D-02 0.773581813234D-04 0.000000000000D+00  6 -1 3 -11 11 3 -1 4 0.36447763D-01 0.25895632D-01 0.64189076D+03 0.25878615D+03 0.32084055D+04 0.14196075D+01  1  2  5  8  6  1       21 0.206636421270D+01
0.171270284032D-01 0.000000000000D+00 -.644441648379D-02 0.773581813234D-04 0.000000000000D+00  6 -5 3 -11 11 3 -5 4 0.36447763D-01 0.25895632D-01 0.64189076D+03 0.25878615D+03 0.32084055D+04 0.14196075D+01  1  2  5  8  6  1       21 0.490529722495D+00
0.171270284032D-01 0.000000000000D+00 -.644441648379D-02 0.773581813234D-04 0.000000000000D+00  6 1 3 -11 11 3 1 4 0.36447763D-01 0.25895632D-01 0.64189076D+03 0.25878615D+03 0.32084055D+04 0.14196075D+01  1  2  5  9  6  1       21 0.354195708753D+01
0.171270284032D-01 0.000000000000D+00 -.644441648379D-02 0.773581813234D-04 0.000000000000D+00  6 5 3 -11 11 3 5 4 0.36447763D-01 0.25895632D-01 0.64189076D+03 0.25878615D+03 0.32084055D+04 0.14196075D+01  1  2  5  9  6  1       21 0.489092067478D+00
  </mgrwgt>
  </event>
  <event npLO=' -1 ' npNLO=' 1 '>
  6     66 0.11644275E+02 0.50660081E+02 0.75467711E-02 0.11906742E+00
       21 -1    0    0  501  502 0.00000000E+00 0.00000000E+00 0.29306246E+02 0.29306246E+02 0.00000000E+00 0.0000E+00 0.9000E+01
        1 -1    0    0  502    0 0.00000000E+00 0.00000000E+00 -.24985037E+03 0.24985037E+03 0.00000000E+00 0.0000E+00 0.9000E+01
       23  2    1    2    0    0 0.50318011E+02 -.58772133E+01 -.19687229E+03 0.22323882E+03 0.92251989E+02 0.0000E+00 0.0000E+00
      -13  1    3    3    0    0 -.75578191E+01 0.94904004E+01 0.46615839E+01 0.12996873E+02 0.00000000E+00 0.0000E+00 0.9000E+01
       13  1    3    3    0    0 0.57875830E+02 -.15367614E+02 -.20153387E+03 0.21024195E+03 0.00000000E+00 0.0000E+00 0.9000E+01
        1  1    1    2  501    0 -.50318011E+02 0.58772133E+01 -.23671833E+02 0.55917792E+02 0.00000000E+00 0.0000E+00 0.9000E+01
#aMCatNLO 1  0  0  2  1 0.29070999D+01 0.00000000D+00  -5  6  0 0.00000000D+00 0.00000000D+00 0.00000000D+00 0.00000000D+00 0.00000000D+00
  <mgrwgt>
 0.2980396393D+03    3    2    0
 0.855697161078255D+02 0.000000000000000D+00 0.000000000000000D+00 0.855697161078255D+02
 0.855697161078255D+02 0.000000000000000D+00 0.000000000000000D+00 -.855697161078255D+02
 0.272073347952337D+02 -.755781912076805D+01 0.949040043918195D+01 0.243526330465858D+02
 0.832264038727130D+02 0.578758298128201D+02 -.153676137832714D+02 -.578001649796056D+02
 0.607056935477043D+02 -.503180106920520D+02 0.587721334408949D+01 0.334475319330198D+02
 0.000000000000000D+00 -.000000000000000D+00 -.000000000000000D+00 0.000000000000000D+00
 0.185251344412239D+03 0.000000000000000D+00 0.000000000000000D+00 0.185251344412239D+03
 0.136475256967632D+03 0.000000000000000D+00 0.000000000000000D+00 -.136475256967632D+03
 0.382151391951836D+02 -.744372226077521D+01 0.284945104592102D+02 0.243526330465858D+02
 0.890363241287152D+02 0.581762561825358D+02 0.346717631404574D+02 -.578001649796056D+02
 0.754324366532536D+02 -.500805856569868D+02 0.454230123097306D+02 0.334475319330198D+02
 0.119042701402719D+03 -.651948264773764D+00 -.108589285909398D+03 0.487760874446069D+02
0.513268241822D-02 0.000000000000D+00 0.000000000000D+00 0.830422801954D-03 0.000000000000D+00  6 21 1 -13 13 1 21 2 0.45086532D-02 0.38438518D-01 0.37621996D+04 0.25664438D+04 0.60767331D+04 0.12758396D+01  1  2  2  2  6  2        1 0.305551519007D+03
-.377446248601D-03 0.249190365231D-03 0.113073204004D-04 0.830422801954D-03 0.000000000000D+00  6 21 1 -13 13 1 21 4 0.45086532D-02 0.38438518D-01 0.37621996D+04 0.25664438D+04 0.60767331D+04 0.12758396D+01  1  2  3  2  6  2        1 -.452857178144D+02
0.389815302355D-03 0.000000000000D+00 0.000000000000D+00 0.830422801954D-03 0.000000000000D+00  6 21 1 -13 13 1 21 4 0.45086532D-02 0.38438518D-01 0.37621996D+04 0.25664438D+04 0.60767331D+04 0.12758396D+01  1  2 15  2  6  2        1 0.377738380649D+02
  </mgrwgt>
  </event>
  <event npLO=' -1 ' npNLO=' 1 '>
  6     66 0.11644275E+02 0.12784201E+02 0.75467711E-02 0.12406198E+00
       21 -1    0    0  501  502 0.00000000E+00 0.00000000E+00 0.39584813E+02 0.39584813E+02 0.00000000E+00 0.0000E+00 0.9000E+01
        5 -1    0    0  502    0 0.00000000E+00 0.00000000E+00 -.73316326E+02 0.73316326E+02 0.00000000E+00 0.0000E+00 0.9000E+01
       23  2    1    2    0    0 -.10231562E+02 0.76649155E+01 -.39859394E+02 0.98724161E+02 0.89410586E+02 0.0000E+00 0.0000E+00
      -13  1    3    3    0    0 0.26955174E+02 0.27593458E+02 0.28634706E+01 0.38680483E+02 0.00000000E+00 0.0000E+00 0.9000E+01
       13  1    3    3    0    0 -.37186735E+02 -.19928543E+02 -.42722865E+02 0.60043678E+02 0.00000000E+00 0.0000E+00 0.9000E+01
        5  1    1    2  501    0 0.10231562E+02 -.76649155E+01 0.61278805E+01 0.14176978E+02 0.00000000E+00 0.0000E+00 0.9000E+01
#aMCatNLO 1  0  0  2  5 0.10345799D+03 0.00000000D+00  -5  6  0 0.00000000D+00 0.00000000D+00 0.00000000D+00 0.00000000D+00 0.00000000D+00
  <mgrwgt>
 0.9626162813D+02    3    2    0
 0.538721919571678D+02 0.000000000000000D+00 0.000000000000000D+00 0.538721919571678D+02
 0.538721919571678D+02 0.000000000000000D+00 0.000000000000000D+00 -.538721919571678D+02
 0.414282367047250D+02 0.269551736042790D+02 0.275934584026720D+02 0.151102106473046D+02
 0.495421902984472D+02 -.371867353628566D+02 -.199285428740009D+02 -.259697614840709D+02
 0.167739569111634D+02 0.102315617585776D+02 -.766491552867115D+01 0.108595508367663D+02
 0.000000000000000D+00 0.000000000000000D+00 -.000000000000000D+00 0.000000000000000D+00
 0.108807429762030D+03 0.000000000000000D+00 0.000000000000000D+00 0.108807429762030D+03
 0.845762969462638D+02 0.000000000000000D+00 0.000000000000000D+00 -.845762969462638D+02
 0.481498648066291D+02 0.943012445087926D+01 0.447343689788028D+02 0.151102106473046D+02
 0.650475622228506D+02 -.596050609528125D+02 0.199838645101455D+01 -.259697614840709D+02
 0.119914165389588D+02 0.460390750911363D+01 -.216061608853339D+01 0.108595508367663D+02
 0.681948831398555D+02 0.455710289928196D+02 -.445721393412839D+02 0.242311328157664D+02
0.159498549839D-02 0.000000000000D+00 0.000000000000D+00 0.101955462982D-02 0.000000000000D+00  6 21 5 -13 13 5 21 2 0.60899712D-02 0.11279435D-01 0.21878350D+04 0.16343579D+03 0.26576152D+04 0.14550197D+01  1  2  2  2  6  2        5 0.933453211515D+02
0.116063190599D-03 0.774361214072D-04 0.351375958899D-05 0.101955462982D-02 0.000000000000D+00  6 21 5 -13 13 5 21 4 0.60899712D-02 0.11279435D-01 0.21878350D+04 0.16343579D+03 0.26576152D+04 0.14550197D+01  1  2  3  2  6  2        5 -.104252229421D+02
0.107679257067D-03 0.000000000000D+00 0.000000000000D+00 0.101955462982D-02 0.000000000000D+00  6 21 5 -13 13 5 21 4 0.60899712D-02 0.11279435D-01 0.21878350D+04 0.16343579D+03 0.26576152D+04 0.14550197D+01  1  2 15  2  6  2        5 0.133415299233D+02
  </mgrwgt>
  </event>
  <event npLO=' -1 ' npNLO=' 1 '>
  6     66 0.11644275E+02 0.16527980E+02 0.75467711E-02 0.15947042E+00
       21 -1    0    0  501  502 0.00000000E+00 0.00000000E+00 0.14641010E+03 0.14641010E+03 0.00000000E+00 0.0000E+00 0.9000E+01
        5 -1    0    0  502    0 0.00000000E+00 0.00000000E+00 -.42057981E+02 0.42057981E+02 0.00000000E+00 0.0000E+00 0.9000E+01
       23  2    1    2    0    0 0.12029101E+02 0.11334676E+02 0.11333767E+02 0.93992752E+02 0.91831416E+02 0.0000E+00 0.0000E+00
      -13  1    3    3    0    0 0.32897255E+02 0.22857922E+02 0.40067482E+02 0.56657896E+02 0.00000000E+00 0.0000E+00 0.9000E+01
       13  1    3    3    0    0 -.20868154E+02 -.11523247E+02 -.28733715E+02 0.37334856E+02 0.00000000E+00 0.0000E+00 0.9000E+01
        5  1    1    2  501    0 -.12029101E+02 -.11334676E+02 0.93018347E+02 0.94475325E+02 0.00000000E+00 0.0000E+00 0.9000E+01
#aMCatNLO 1  0  0  5  2 0.32050332D+02 0.00000000D+00  -5  6  0 0.00000000D+00 0.00000000D+00 0.00000000D+00 0.00000000D+00 0.00000000D+00
  <mgrwgt>
 0.6608296847D+02    4    2    0
 0.784710970252987D+02 0.000000000000000D+00 0.000000000000000D+00 0.784710970252987D+02
 0.784710970252987D+02 -.000000000000000D+00 -.000000000000000D+00 -.784710970252987D+02
 0.413979058405927D+02 0.328972551779207D+02 0.228579224810310D+02 0.104437823414949D+02
 0.639397997425771D+02 -.208681544628351D+02 -.115232468774078D+02 -.593298651763042D+02
 0.516044884674277D+02 -.120291007150857D+02 -.113346756036232D+02 0.488860828348093D+02
 0.000000000000000D+00 0.000000000000000D+00 0.000000000000000D+00 -.000000000000000D+00
 0.784710970252987D+02 0.000000000000000D+00 0.000000000000000D+00 0.784710970252987D+02
 0.784710970252987D+02 -.000000000000000D+00 -.000000000000000D+00 -.784710970252987D+02
 0.445190779330436D+02 0.283732286879502D+02 0.185950624468053D+02 0.288293573710740D+02
 0.475791505089823D+02 -.267402726740725D+02 -.170563749646166D+02 -.354656658409093D+02
 0.358615410303708D+02 -.960917640928696D+01 -.191577954248315D+01 0.344970091827215D+02
 0.289824245782008D+02 0.797622039540927D+01 0.377092060294467D+00 -.278607007128862D+02
0.421644041905D-02 0.000000000000D+00 0.000000000000D+00 0.793057263465D-02 0.000000000000D+00  6 21 5 -13 13 5 21 2 0.22524630D-01 0.64704587D-02 0.16170521D+04 0.27317414D+03 0.30159269D+04 0.14156145D+01  1  2  2  3  6  5        5 0.684652986543D+02
0.313638300674D-03 0.204707060049D-03 0.928883552159D-05 0.793057263465D-02 0.000000000000D+00  6 21 5 -13 13 5 21 4 0.22524630D-01 0.64704587D-02 0.16170521D+04 0.27317414D+03 0.30159269D+04 0.14156145D+01  1  2  3  3  6  5        5 -.145102698061D+01
0.287790219909D-03 0.000000000000D+00 0.000000000000D+00 0.793057263465D-02 0.000000000000D+00  6 21 5 -13 13 5 21 4 0.22524630D-01 0.64704587D-02 0.16170521D+04 0.27317414D+03 0.30159269D+04 0.14156145D+01  1  2 15  3  6  5        5 0.936462906800D+01
-.316410675922D-03 0.000000000000D+00 0.000000000000D+00 0.793057263465D-02 0.000000000000D+00  6 21 5 -13 13 5 21 4 0.22524630D-01 0.64704587D-02 0.16170521D+04 0.27317414D+03 0.30159269D+04 0.14156145D+01  1  2  4  3  6  5        5 -.102959322735D+02
  </mgrwgt>
  </event>
</LesHouchesEvents>
