<LesHouchesEvents version="3.0">
  <!--
  <scalesfunctionalform>
    muR  FxFx merging scale
    muF1 FxFx merging scale
    muF2 FxFx merging scale
    QES  H_T/2 := sum_i mT(i)/2, i=final state
  </scalesfunctionalform>
PYTHIA8   
  -->
  <header>
      103
  </header>
  <init>
   2212   2212 0.65000000D+04 0.65000000D+04 -1 -1 306000 306000 -4   1
 0.10763598D+04 0.40943150D+01 0.12615437D+02     66
  </init>
  <event npLO=' -1 ' npNLO=' 0 '>
  5     66 0.12615437E+02 0.31998758E+02 0.75467711E-02 0.11788224E+00
       -3 -1    0    0    0  501 0.00000000E+00 0.00000000E+00 0.29115981E+03 0.29115981E+03 0.00000000E+00 0.0000E+00 0.9000E+01
        3 -1    0    0  501    0 0.00000000E+00 0.00000000E+00 -.70262150E+01 0.70262150E+01 0.00000000E+00 0.0000E+00 0.9000E+01
       23  2    1    2    0    0 0.00000000E+00 0.00000000E+00 0.28413359E+03 0.29818602E+03 0.90459967E+02 0.0000E+00 0.0000E+00
      -11  1    3    3    0    0 0.35813243E+02 0.27174513E+02 0.12568139E+03 0.13347979E+03 0.00000000E+00 0.0000E+00 0.9000E+01
       11  1    3    3    0    0 -.35813243E+02 -.27174513E+02 0.15845220E+03 0.16470623E+03 0.00000000E+00 0.0000E+00 0.9000E+01
#aMCatNLO 1  0  0  1  2 0.15805374D+02 0.00000000D+00  -5  5  0 0.00000000D+00 0.00000000D+00 0.00000000D+00 0.00000000D+00 0.00000000D+00
  <mgrwgt>
 0.2333421613D+03    7    2    0
 0.452299834712010D+02 0.000000000000000D+00 0.000000000000000D+00 0.452299834712010D+02
 0.452299834712010D+02 0.000000000000000D+00 0.000000000000000D+00 -.452299834712010D+02
 0.452299834712010D+02 0.358132434933711D+02 0.271745125077942D+02 -.497080126874635D+01
 0.452299834712010D+02 -.358132434933711D+02 -.271745125077942D+02 0.497080126874635D+01
 0.000000000000000D+00 -.000000000000000D+00 -.000000000000000D+00 0.000000000000000D+00
 0.142653938095052D+03 0.000000000000000D+00 0.000000000000000D+00 0.142653938095052D+03
 0.465346132303236D+02 0.000000000000000D+00 0.000000000000000D+00 -.465346132303236D+02
 0.524200226174497D+02 0.386465527112204D+02 0.350655652955921D+02 -.497080126874635D+01
 0.393836005828311D+02 -.333581852987212D+02 -.203369270832834D+02 0.497080126874635D+01
 0.973849281250951D+02 -.528836741249922D+01 -.147286382123086D+02 0.961193248647288D+02
0.578663765706D-01 0.000000000000D+00 0.000000000000D+00 0.574697302712D+00 0.000000000000D+00  5 -3 3 -11 11 21 0 0.44793817D-01 0.10809562D-02 0.20210425D+04 0.81830056D+04 0.81830056D+04 0.12184647D+01  1  2  2  1  5  1       -3 0.247192577852D+03
-.321465440471D-02 0.000000000000D+00 -.222222122598D-03 0.574697302712D+00 0.000000000000D+00  5 -3 3 -11 11 21 2 0.44793817D-01 0.10809562D-02 0.20210425D+04 0.81830056D+04 0.81830056D+04 0.12184647D+01  1  2  3  1  5  1       -3 -.223586665160D+02
0.305730103091D-02 0.000000000000D+00 0.000000000000D+00 0.574697302712D+00 0.000000000000D+00  5 -3 3 -11 11 21 2 0.44793817D-01 0.10809562D-02 0.20210425D+04 0.81830056D+04 0.81830056D+04 0.12184647D+01  1  2 15  1  5  1       -3 0.193897956037D+02
0.456651584984D+00 0.000000000000D+00 0.000000000000D+00 0.574697302712D+00 0.000000000000D+00  5 -3 3 -11 11 21 2 0.14535336D+00 0.10809562D-02 0.28569946D+04 0.84279052D+04 0.84279052D+04 0.12171080D+01  1  2 12  1  5  1       -3 0.173505673726D+03
-.424478261480D+00 0.000000000000D+00 -.177579116107D-01 0.574697302712D+00 0.000000000000D+00  5 -3 3 -11 11 21 2 0.14240186D+00 0.10809562D-02 0.20210425D+04 0.81830056D+04 0.81830056D+04 0.12184647D+01  1  2  5  1  5  1       -3 -.180863050750D+03
0.620609535087D-01 0.000000000000D+00 0.000000000000D+00 0.574697302712D+00 0.000000000000D+00  5 21 3 -11 11 3 2 0.14535336D+00 0.10809562D-02 0.28569946D+04 0.84279052D+04 0.84279052D+04 0.12171080D+01  1  2 12  3  5  1       -3 0.382025995022D+03
-.556893781400D-01 0.000000000000D+00 -.236242412358D-02 0.574697302712D+00 0.000000000000D+00  5 21 3 -11 11 3 2 0.14240186D+00 0.10809562D-02 0.20210425D+04 0.81830056D+04 0.81830056D+04 0.12184647D+01  1  2  5  3  5  1       -3 -.385550163652D+03
  </mgrwgt>
  </event>
  <event npLO=' -1 ' npNLO=' 0 '>
  5     66 0.12615437E+02 0.43632461E+02 0.75467711E-02 0.11833027E+00
       -1 -1    0    0    0  501 0.00000000E+00 0.00000000E+00 0.70746604E+03 0.70746604E+03 0.00000000E+00 0.0000E+00 0.9000E+01
        1 -1    0    0  501    0 0.00000000E+00 0.00000000E+00 -.28154402E+01 0.28154402E+01 0.00000000E+00 0.0000E+00 0.9000E+01
       23  2    1    2    0    0 0.00000000E+00 0.00000000E+00 0.70465060E+03 0.71028148E+03 0.89259808E+02 0.0000E+00 0.0000E+00
      -11  1    3    3    0    0 -.30199602E+02 -.11043395E+02 0.59860273E+03 0.59946576E+03 0.00000000E+00 0.0000E+00 0.9000E+01
       11  1    3    3    0    0 0.30199602E+02 0.11043395E+02 0.10604787E+03 0.11081572E+03 0.00000000E+00 0.0000E+00 0.9000E+01
#aMCatNLO 1  0  0  1  2 0.10854221D+02 0.00000000D+00  -5  5  0 0.00000000D+00 0.00000000D+00 0.00000000D+00 0.00000000D+00 0.00000000D+00
  <mgrwgt>
 0.4890908271D+03    6    2    0
 0.446299041151613D+02 0.000000000000000D+00 0.000000000000000D+00 0.446299041151613D+02
 0.446299041151613D+02 0.000000000000000D+00 0.000000000000000D+00 -.446299041151613D+02
 0.446299041151613D+02 -.301996016749621D+02 -.110433954122770D+02 0.309492458352416D+02
 0.446299041151613D+02 0.301996016749621D+02 0.110433954122770D+02 -.309492458352416D+02
 0.000000000000000D+00 -.000000000000000D+00 -.000000000000000D+00 -.000000000000000D+00
 0.476164130472623D+02 0.000000000000000D+00 0.000000000000000D+00 0.476164130472623D+02
 0.489950163423567D+02 0.000000000000000D+00 0.000000000000000D+00 -.489950163423567D+02
 0.423031726695822D+02 -.268707894293044D+02 -.104720234715289D+02 0.309492458352416D+02
 0.472265093580438D+02 0.337169366793234D+02 0.116471262265711D+02 -.309492458352416D+02
 0.708174736199301D+01 -.684614725001896D+01 -.117510275504214D+01 -.137860329509441D+01
0.112853404855D+00 0.000000000000D+00 0.000000000000D+00 0.372889088841D+00 0.000000000000D+00  5 -1 1 -11 11 21 0 0.10884093D+00 0.43314465D-03 0.10339725D+04 0.79673134D+04 0.79673134D+04 0.12196978D+01  1  2  2  1  5  1       -1 0.545186058491D+03
-.545041296489D-02 0.000000000000D+00 -.433386789627D-03 0.372889088841D+00 0.000000000000D+00  5 -1 1 -11 11 21 2 0.10884093D+00 0.43314465D-03 0.10339725D+04 0.79673134D+04 0.79673134D+04 0.12196978D+01  1  2  3  1  5  1       -1 -.455308785576D+02
0.554588049603D-02 0.000000000000D+00 0.000000000000D+00 0.372889088841D+00 0.000000000000D+00  5 -1 1 -11 11 21 2 0.10884093D+00 0.43314465D-03 0.10339725D+04 0.79673134D+04 0.79673134D+04 0.12196978D+01  1  2 15  1  5  1       -1 0.398570428789D+02
0.827217228761D-01 0.000000000000D+00 0.000000000000D+00 0.372889088841D+00 0.000000000000D+00  5 -1 1 -11 11 21 2 0.12748201D+00 0.43314465D-03 0.12765422D+04 0.80155640D+04 0.80155640D+04 0.12194187D+01  1  2 12  1  5  1       -1 0.408696077382D+03
-.730510051589D-01 0.000000000000D+00 0.000000000000D+00 0.372889088841D+00 0.000000000000D+00  5 -1 1 -11 11 21 2 0.10884093D+00 0.43314465D-03 0.10339725D+04 0.79673134D+04 0.79673134D+04 0.12196978D+01  1  2  4  1  5  1       -1 -.525001764292D+03
0.196851141492D-02 0.000000000000D+00 0.000000000000D+00 0.372889088841D+00 0.000000000000D+00  5 21 1 -11 11 1 2 0.12748201D+00 0.43314465D-03 0.12765422D+04 0.80155640D+04 0.80155640D+04 0.12194187D+01  1  2 12  3  5  1       -1 0.658842911960D+02
  </mgrwgt>
  </event>
  <event npLO=' -1 ' npNLO=' 0 '>
  4     66 0.12615437E+02 0.25654213E+02 0.75467711E-02 0.12754771E+00
       -3 -1    0    0    0  501 0.00000000E+00 0.00000000E+00 0.79261809E+02 0.79261809E+02 0.00000000E+00 0.0000E+00 0.9000E+01
        3 -1    0    0  501    0 0.00000000E+00 0.00000000E+00 -.91624408E+01 0.91624408E+01 0.00000000E+00 0.0000E+00 0.9000E+01
      -11  1    1    2    0    0 -.12339643E+01 -.38325563E+01 -.86661978E+01 0.95558432E+01 0.00000000E+00 0.0000E+00 0.9000E+01
       11  1    1    2    0    0 0.12339643E+01 0.38325563E+01 0.78765566E+02 0.78868406E+02 0.00000000E+00 0.0000E+00 0.9000E+01
#aMCatNLO 1  0  0  1  2 0.32399424D+02 0.00000000D+00  -5  5  0 0.00000000D+00 0.00000000D+00 0.00000000D+00 0.00000000D+00 0.00000000D+00
  <mgrwgt>
 0.6071383478D+03    6    2    0
 0.269486850968241D+02 0.000000000000000D+00 0.000000000000000D+00 0.269486850968241D+02
 0.269486850968241D+02 0.000000000000000D+00 0.000000000000000D+00 -.269486850968241D+02
 0.269486850968241D+02 -.123396434360293D+01 -.383255630328277D+01 -.266462093482107D+02
 0.269486850968241D+02 0.123396434360293D+01 0.383255630328277D+01 0.266462093482107D+02
 0.000000000000000D+00 0.000000000000000D+00 0.000000000000000D+00 -.000000000000000D+00
 0.304362650401198D+02 0.000000000000000D+00 0.000000000000000D+00 0.304362650401198D+02
 0.458077768889058D+02 0.000000000000000D+00 0.000000000000000D+00 -.458077768889058D+02
 0.288226378129190D+02 -.219012754404055D+01 -.107669549644674D+02 -.266462093482107D+02
 0.268000498906289D+02 0.312477102781198D+00 -.285036130547720D+01 0.266462093482107D+02
 0.206213542254777D+02 0.187765044125936D+01 0.136173162699446D+02 -.153715118487860D+02
0.170324077889D-01 0.000000000000D+00 0.000000000000D+00 0.163289752001D-02 0.000000000000D+00  5 -3 3 -11 11 21 0 0.12194124D-01 0.14096063D-02 0.16211156D+02 0.29049265D+04 0.29049265D+04 0.12693071D+01  1  2  2  1  5  1       -3 0.465937240920D+03
0.321178848520D-02 0.000000000000D+00 -.654089306452D-04 0.163289752001D-02 0.000000000000D+00  5 -3 3 -11 11 21 2 0.12194124D-01 0.14096063D-02 0.16211156D+02 0.29049265D+04 0.29049265D+04 0.12693071D+01  1  2  3  1  5  1       -3 0.126599571673D+03
0.593462424318D-03 0.000000000000D+00 0.000000000000D+00 0.163289752001D-02 0.000000000000D+00  5 -3 3 -11 11 21 2 0.12194124D-01 0.14096063D-02 0.16211156D+02 0.29049265D+04 0.29049265D+04 0.12693071D+01  1  2 15  1  5  1       -3 0.261564037008D+02
0.159891072298D-02 0.000000000000D+00 0.000000000000D+00 0.163289752001D-02 0.000000000000D+00  5 -3 3 -11 11 21 2 0.23410249D-01 0.14096063D-02 0.19045439D+03 0.30938834D+04 0.30938834D+04 0.12660220D+01  1  2 12  1  5  1       -3 0.237272499308D+02
-.141575909228D-02 0.000000000000D+00 0.000000000000D+00 0.163289752001D-02 0.000000000000D+00  5 -3 3 -11 11 21 2 0.12194124D-01 0.14096063D-02 0.16211156D+02 0.29049265D+04 0.29049265D+04 0.12693071D+01  1  2  4  1  5  1       -3 -.623985021515D+02
0.113178291994D-03 0.000000000000D+00 0.000000000000D+00 0.163289752001D-02 0.000000000000D+00  5 21 3 -11 11 3 2 0.23410249D-01 0.14096063D-02 0.19045439D+03 0.30938834D+04 0.30938834D+04 0.12660220D+01  1  2 12  3  5  1       -3 0.271163837297D+02
  </mgrwgt>
  </event>
  <event npLO=' -1 ' npNLO=' 0 '>
  5     66 0.12615437E+02 0.47046579E+02 0.75467711E-02 0.11829888E+00
       -1 -1    0    0    0  501 0.00000000E+00 0.00000000E+00 0.10219173E+02 0.10219173E+02 0.00000000E+00 0.0000E+00 0.9000E+01
        1 -1    0    0  501    0 0.00000000E+00 0.00000000E+00 -.19673113E+03 0.19673113E+03 0.00000000E+00 0.0000E+00 0.9000E+01
       23  2    1    2    0    0 0.00000000E+00 0.00000000E+00 -.18651196E+03 0.20695030E+03 0.89675624E+02 0.0000E+00 0.0000E+00
      -11  1    3    3    0    0 -.21842497E+02 0.23789664E+02 -.16503403E+03 0.16816443E+03 0.00000000E+00 0.0000E+00 0.9000E+01
       11  1    3    3    0    0 0.21842497E+02 -.23789664E+02 -.21477922E+02 0.38785873E+02 0.00000000E+00 0.0000E+00 0.9000E+01
#aMCatNLO 1  0  0  1  2 0.27301324D+01 0.00000000D+00  -5  5  0 0.00000000D+00 0.00000000D+00 0.00000000D+00 0.00000000D+00 0.00000000D+00
  <mgrwgt>
 0.5703868979D+03    8    2    0
 0.448378121576451D+02 0.000000000000000D+00 0.000000000000000D+00 0.448378121576451D+02
 0.448378121576451D+02 0.000000000000000D+00 0.000000000000000D+00 -.448378121576451D+02
 0.448378121576451D+02 -.218424966108720D+02 0.237896643289345D+02 -.311028392916938D+02
 0.448378121576451D+02 0.218424966108720D+02 -.237896643289345D+02 0.311028392916938D+02
 0.000000000000000D+00 0.000000000000000D+00 0.000000000000000D+00 -.000000000000000D+00
 0.452576893357260D+02 0.000000000000000D+00 0.000000000000000D+00 0.452576893357260D+02
 0.460251788546839D+02 0.000000000000000D+00 0.000000000000000D+00 -.460251788546839D+02
 0.448003849438361D+02 -.223156516753452D+02 0.232744402599854D+02 -.311028392916938D+02
 0.448861625202986D+02 0.213688887696136D+02 -.243053814318067D+02 0.311028392916938D+02
 0.159632072627522D+01 0.946762905731595D+00 0.103094117182126D+01 -.767489518957959D+00
0.317524248244D-01 0.000000000000D+00 0.000000000000D+00 0.385258538863D+00 0.000000000000D+00  5 -1 1 -11 11 21 0 0.15721804D-02 0.30266328D-01 0.10430428D+04 0.80417176D+04 0.80417176D+04 0.12192683D+01  1  2  2  1  5  1       -1 0.434362021132D+03
-.153313288563D-02 0.000000000000D+00 -.121937671931D-03 0.385258538863D+00 0.000000000000D+00  5 -1 1 -11 11 21 2 0.15721804D-02 0.30266328D-01 0.10430428D+04 0.80417176D+04 0.80417176D+04 0.12192683D+01  1  2  3  1  5  1       -1 -.362432919475D+02
0.158286700355D-02 0.000000000000D+00 0.000000000000D+00 0.385258538863D+00 0.000000000000D+00  5 -1 1 -11 11 21 2 0.15721804D-02 0.30266328D-01 0.10430428D+04 0.80417176D+04 0.80417176D+04 0.12192683D+01  1  2 15  1  5  1       -1 0.321897723020D+02
0.151770123403D-03 0.000000000000D+00 0.000000000000D+00 0.385258538863D+00 0.000000000000D+00  5 -1 1 -11 11 21 2 0.16289262D-02 0.30266328D-01 0.10892367D+04 0.80436768D+04 0.80436768D+04 0.12192570D+01  1  2 12  1  5  1       -1 0.293785311384D+01
-.515651947956D-01 0.000000000000D+00 0.000000000000D+00 0.385258538863D+00 0.000000000000D+00  5 -1 1 -11 11 21 2 0.15721804D-02 0.30266328D-01 0.10430428D+04 0.80417176D+04 0.80417176D+04 0.12192683D+01  1  2  4  1  5  1       -1 -.104864898659D+04
0.514807783450D-01 0.000000000000D+00 0.000000000000D+00 0.385258538863D+00 0.155957135187D+01  5 -1 1 -11 11 21 2 0.15869029D-02 0.31067821D-01 0.10892367D+04 0.80436768D+04 0.80436768D+04 0.12192570D+01  1  2 11  1  5  1       -1 0.100052021490D+04
0.430755800633D-05 0.000000000000D+00 0.000000000000D+00 0.385258538863D+00 0.000000000000D+00  5 21 1 -11 11 1 2 0.16289262D-02 0.30266328D-01 0.10892367D+04 0.80436768D+04 0.80436768D+04 0.12192570D+01  1  2 12  3  5  1       -1 0.153221668899D+01
0.513005670602D-03 0.000000000000D+00 0.000000000000D+00 0.385258538863D+00 0.272823518564D-02  5 21 1 -11 11 1 2 0.15869029D-02 0.31067821D-01 0.10892367D+04 0.80436768D+04 0.80436768D+04 0.12192570D+01  1  2 11  3  5  1       -1 0.183737098252D+03
  </mgrwgt>
  </event>
  <event npLO=' -1 ' npNLO=' 0 '>
  5     66 0.12615437E+02 0.88019606E+02 0.75467711E-02 0.11847681E+00
       -1 -1    0    0    0  501 0.00000000E+00 0.00000000E+00 0.18638480E+01 0.18638480E+01 0.00000000E+00 0.0000E+00 0.9000E+01
        1 -1    0    0  501    0 0.00000000E+00 0.00000000E+00 -.10391742E+04 0.10391742E+04 0.00000000E+00 0.0000E+00 0.9000E+01
       23  2    1    2    0    0 0.00000000E+00 0.00000000E+00 -.10373104E+04 0.10410381E+04 0.88019606E+02 0.0000E+00 0.0000E+00
      -11  1    3    3    0    0 0.40210367E+02 -.15116751E+02 -.40553669E+03 0.40780559E+03 0.00000000E+00 0.0000E+00 0.9000E+01
       11  1    3    3    0    0 -.40210367E+02 0.15116751E+02 -.63177366E+03 0.63323246E+03 0.00000000E+00 0.0000E+00 0.9000E+01
#aMCatNLO 1  0  0  2  2 0.11340501D+03 0.00000000D+00  -5  5  0 0.00000000D+00 0.00000000D+00 0.00000000D+00 0.00000000D+00 0.00000000D+00
  <mgrwgt>
 0.4188389150D+03    3    2    0
 0.440098027691370D+02 0.000000000000000D+00 0.000000000000000D+00 0.440098027691370D+02
 0.440098027691370D+02 0.000000000000000D+00 0.000000000000000D+00 -.440098027691370D+02
 0.440098027691370D+02 0.402103670063442D+02 -.151167507028238D+02 0.956415041611744D+01
 0.440098027691370D+02 -.402103670063442D+02 0.151167507028238D+02 -.956415041611744D+01
 0.000000000000000D+00 0.000000000000000D+00 0.000000000000000D+00 0.000000000000000D+00
 0.146428828851915D+03 0.000000000000000D+00 0.000000000000000D+00 0.146428828851915D+03
 0.447400597888287D+02 0.000000000000000D+00 0.000000000000000D+00 -.447400597888287D+02
 0.455583442696673D+02 0.392810556106543D+02 -.210021053593229D+02 0.956415041611744D+01
 0.432437339112917D+02 -.411156632375618D+02 0.938348474415996D+01 -.956415041611744D+01
 0.102366810459784D+03 0.183460762690758D+01 0.116186206151629D+02 0.101688769063086D+03
0.291624039258D-01 0.000000000000D+00 0.000000000000D+00 0.104777256227D+00 0.000000000000D+00  5 -1 1 -11 11 21 0 0.28674584D-03 0.15987295D+00 0.18453898D+04 0.77474510D+04 0.77474510D+04 0.12209940D+01  1  2  2  2  5  2        1 0.422527233396D+03
-.161898093115D-02 0.000000000000D+00 -.111991309713D-03 0.104777256227D+00 0.000000000000D+00  5 -1 1 -11 11 21 2 0.28674584D-03 0.15987295D+00 0.18453898D+04 0.77474510D+04 0.77474510D+04 0.12209940D+01  1  2  3  2  5  2        1 -.384408947285D+02
0.160889823983D-02 0.000000000000D+00 0.000000000000D+00 0.104777256227D+00 0.000000000000D+00  5 -1 1 -11 11 21 2 0.28674584D-03 0.15987295D+00 0.18453898D+04 0.77474510D+04 0.77474510D+04 0.12209940D+01  1  2 15  2  5  2        1 0.347525763500D+02
  </mgrwgt>
  </event>
  <event npLO=' -1 ' npNLO=' 0 '>
  6     66 0.12615437E+02 0.92220872E+02 0.75467711E-02 0.11770089E+00
       -1 -1    0    0    0  501 0.00000000E+00 0.00000000E+00 0.12878974E+01 0.12878974E+01 0.00000000E+00 0.0000E+00 0.9000E+01
        1 -1    0    0  502    0 0.00000000E+00 0.00000000E+00 -.20924093E+04 0.20924093E+04 0.00000000E+00 0.0000E+00 0.9000E+01
       23  2    1    2    0    0 0.64704646E+00 -.98310846E+01 -.17739515E+04 0.17763743E+04 0.92220872E+02 0.0000E+00 0.0000E+00
      -13  1    3    3    0    0 -.15927711E+02 -.47324440E+02 -.79655221E+03 0.79811573E+03 0.00000000E+00 0.0000E+00 0.9000E+01
       13  1    3    3    0    0 0.16574757E+02 0.37493356E+02 -.97739924E+03 0.97825853E+03 0.00000000E+00 0.0000E+00 0.9000E+01
       21  1    1    2  502  501 -.64704646E+00 0.98310846E+01 -.31717000E+03 0.31732299E+03 0.00000000E+00 0.0000E+00 0.9000E+01
#aMCatNLO 2  0  0  2  1 0.11623000D+02 0.00000000D+00  -5  5  0 0.00000000D+00 0.00000000D+00 0.00000000D+00 0.00000000D+00 0.00000000D+00
  <mgrwgt>
 0.1018273322D+03    2    2    0
 0.461104358413523D+02 0.000000000000000D+00 0.000000000000000D+00 0.461104358413523D+02
 0.461104358413523D+02 0.000000000000000D+00 0.000000000000000D+00 -.461104358413523D+02
 0.461104358413523D+02 -.162665631570348D+02 -.421759926469157D+02 0.909707979436166D+01
 0.461104358413523D+02 0.162665631570348D+02 0.421759926469157D+02 -.909707979436166D+01
 0.000000000000000D+00 -.000000000000000D+00 0.000000000000000D+00 -.000000000000000D+00
 0.493010121833540D+02 0.000000000000000D+00 0.000000000000000D+00 0.493010121833540D+02
 0.546603068823283D+02 0.000000000000000D+00 0.000000000000000D+00 -.546603068823283D+02
 0.507548172522631D+02 -.159277109492189D+02 -.473244401704211D+02 0.909707979436166D+01
 0.419908460840232D+02 0.165747574056265D+02 0.374933555581756D+02 -.909707979436166D+01
 0.112156557293961D+02 -.647046456407572D+00 0.983108461224553D+01 -.535929469897432D+01
-.568454284095D-01 0.000000000000D+00 0.000000000000D+00 0.569436698778D+00 0.000000000000D+00  5 -1 1 -13 13 21 2 0.18531530D-03 0.34418339D+00 0.25390939D+04 0.86017581D+04 0.86017581D+04 0.12161715D+01  1  2 13  2  5  2        1 -.354979822612D+03
0.637626323232D-01 0.000000000000D+00 0.000000000000D+00 0.569436698778D+00 0.477319797788D-01  5 -1 1 -13 13 21 2 0.19813805D-03 0.32190913D+00 0.25390939D+04 0.86017581D+04 0.86017581D+04 0.12161715D+01  1  2  1  2  5  2        1 0.456807154826D+03
  </mgrwgt>
  </event>
  <event npLO=' -1 ' npNLO=' 0 '>
  5     66 0.12615437E+02 0.41314353E+02 0.75467711E-02 0.11807501E+00
       -3 -1    0    0    0  501 0.00000000E+00 0.00000000E+00 0.72519605E+01 0.72519605E+01 0.00000000E+00 0.0000E+00 0.9000E+01
        3 -1    0    0  501    0 0.00000000E+00 0.00000000E+00 -.28349033E+03 0.28349033E+03 0.00000000E+00 0.0000E+00 0.9000E+01
       23  2    1    2    0    0 0.00000000E+00 0.00000000E+00 -.27623837E+03 0.29074229E+03 0.90683200E+02 0.0000E+00 0.0000E+00
      -13  1    3    3    0    0 -.32988093E+02 -.10916476E+02 -.23150941E+03 0.23410252E+03 0.00000000E+00 0.0000E+00 0.9000E+01
       13  1    3    3    0    0 0.32988093E+02 0.10916476E+02 -.44728964E+02 0.56639774E+02 0.00000000E+00 0.0000E+00 0.9000E+01
#aMCatNLO 1  0  0  1  2 0.77507468D+01 0.00000000D+00  -5  5  0 0.00000000D+00 0.00000000D+00 0.00000000D+00 0.00000000D+00 0.00000000D+00
  <mgrwgt>
 0.1352341179D+03    8    2    0
 0.453416002104365D+02 0.000000000000000D+00 0.000000000000000D+00 0.453416002104365D+02
 0.453416002104365D+02 0.000000000000000D+00 0.000000000000000D+00 -.453416002104365D+02
 0.453416002104365D+02 -.329880928668788D+02 -.109164760363273D+02 -.291286283507743D+02
 0.453416002104365D+02 0.329880928668788D+02 0.109164760363273D+02 0.291286283507743D+02
 0.000000000000000D+00 0.000000000000000D+00 -.000000000000000D+00 -.000000000000000D+00
 0.473958343422376D+02 0.000000000000000D+00 0.000000000000000D+00 0.473958343422376D+02
 0.484395604992537D+02 0.000000000000000D+00 0.000000000000000D+00 -.484395604992537D+02
 0.448535581557344D+02 -.330378972996582D+02 -.847714761282064D+01 -.291286283507743D+02
 0.459624519806885D+02 0.329376761193258D+02 0.133857944978234D+02 0.291286283507743D+02
 0.501938470506835D+01 0.100221180332453D+00 -.490864688500275D+01 -.104372615701610D+01
0.216469836742D-01 0.000000000000D+00 0.000000000000D+00 0.805325088221D+00 0.000000000000D+00  5 -3 3 -13 13 21 0 0.11156862D-02 0.43613897D-01 0.12073837D+04 0.82234428D+04 0.82234428D+04 0.12182376D+01  1  2  2  1  5  1       -3 0.960800156943D+02
-.109905797663D-02 0.000000000000D+00 -.831301170907D-04 0.805325088221D+00 0.000000000000D+00  5 -3 3 -13 13 21 2 0.11156862D-02 0.43613897D-01 0.12073837D+04 0.82234428D+04 0.82234428D+04 0.12182376D+01  1  2  3  1  5  1       -3 -.829027032260D+01
0.993909657546D-03 0.000000000000D+00 0.000000000000D+00 0.805325088221D+00 0.000000000000D+00  5 -3 3 -13 13 21 2 0.11156862D-02 0.43613897D-01 0.12073837D+04 0.82234428D+04 0.82234428D+04 0.12182376D+01  1  2 15  1  5  1       -3 0.654706354652D+01
0.216721758976D-01 0.000000000000D+00 0.000000000000D+00 0.805325088221D+00 0.000000000000D+00  5 -3 3 -13 13 21 2 0.12459160D-02 0.43613897D-01 0.13902296D+04 0.82475477D+04 0.82475477D+04 0.12181028D+01  1  2 12  1  5  1       -3 0.122320996554D+03
-.191940392028D-01 0.000000000000D+00 0.000000000000D+00 0.805325088221D+00 0.000000000000D+00  5 -3 3 -13 13 21 2 0.11156862D-02 0.43613897D-01 0.12073837D+04 0.82234428D+04 0.82234428D+04 0.12182376D+01  1  2  4  1  5  1       -3 -.126434624537D+03
0.176599601947D-03 0.000000000000D+00 0.000000000000D+00 0.805325088221D+00 0.265116862232D+00  5 -3 3 -13 13 21 2 0.11662332D-02 0.46593813D-01 0.13902296D+04 0.82475477D+04 0.82475477D+04 0.12181028D+01  1  2 11  1  5  1       -3 0.958280251354D+00
0.383190307556D-03 0.000000000000D+00 0.000000000000D+00 0.805325088221D+00 0.000000000000D+00  5 21 3 -13 13 3 2 0.12459160D-02 0.43613897D-01 0.13902296D+04 0.82475477D+04 0.82475477D+04 0.12181028D+01  1  2 12  3  5  1       -3 0.436023340826D+02
0.409387307405D-05 0.000000000000D+00 0.000000000000D+00 0.805325088221D+00 0.217721596893D-02  5 21 3 -13 13 3 2 0.11662332D-02 0.46593813D-01 0.13902296D+04 0.82475477D+04 0.82475477D+04 0.12181028D+01  1  2 11  3  5  1       -3 0.450322616309D+00
  </mgrwgt>
  </event>
  <event npLO=' -1 ' npNLO=' 0 '>
  6     66 0.12615437E+02 0.10394704E+03 0.75467711E-02 0.11512816E+00
       -1 -1    0    0    0  501 0.00000000E+00 0.00000000E+00 0.37691479E+02 0.37691479E+02 0.00000000E+00 0.0000E+00 0.9000E+01
       21 -1    0    0  501  502 0.00000000E+00 0.00000000E+00 -.13062497E+03 0.13062497E+03 0.00000000E+00 0.0000E+00 0.9000E+01
       23  2    1    2    0    0 -.21994483E+02 0.16881785E+02 -.90317311E+02 0.14046692E+03 0.10394704E+03 0.0000E+00 0.0000E+00
      -13  1    3    3    0    0 0.25506663E+02 -.30723152E+02 -.39585614E+02 0.56227420E+02 0.00000000E+00 0.0000E+00 0.9000E+01
       13  1    3    3    0    0 -.47501146E+02 0.47604937E+02 -.50731697E+02 0.84239503E+02 0.00000000E+00 0.0000E+00 0.9000E+01
       -1  1    1    2    0  502 0.21994483E+02 -.16881785E+02 -.26161853E+01 0.27849531E+02 0.00000000E+00 0.0000E+00 0.9000E+01
#aMCatNLO 2  0  0  2  1 0.54547210D+02 0.00000000D+00  -5  5  0 0.00000000D+00 0.00000000D+00 0.00000000D+00 0.00000000D+00 0.00000000D+00
  <mgrwgt>
 0.5262306763D+02    2    2    0
 0.519735218551506D+02 0.000000000000000D+00 0.000000000000000D+00 0.519735218551506D+02
 0.519735218551506D+02 0.000000000000000D+00 0.000000000000000D+00 -.519735218551506D+02
 0.519735218551506D+02 0.350888853264134D+02 -.380779515812051D+02 -.448181926866982D+01
 0.519735218551506D+02 -.350888853264134D+02 0.380779515812051D+02 0.448181926866982D+01
 0.000000000000000D+00 0.000000000000000D+00 -.000000000000000D+00 0.000000000000000D+00
 0.808560377900853D+02 0.000000000000000D+00 0.000000000000000D+00 0.808560377900853D+02
 0.608915376655436D+02 0.000000000000000D+00 0.000000000000000D+00 -.608915376655436D+02
 0.401819438310376D+02 0.255066630050336D+02 -.307231516682662D+02 -.448181926866982D+01
 0.673993734521799D+02 -.475011455593199D+02 0.476049368064037D+02 0.448181926866982D+01
 0.341662581724114D+02 0.219944825542863D+02 -.168817851381375D+02 0.199645001245417D+02
-.336507613514D-03 0.000000000000D+00 0.000000000000D+00 0.108160945153D-01 0.000000000000D+00  5 -1 21 -13 13 -1 2 0.37273443D-02 0.31263901D-01 0.45500277D+04 0.11573740D+05 0.11573740D+05 0.12028063D+01  1  2 13  4  5  2        1 -.127664968691D+02
0.143851675930D-02 0.000000000000D+00 0.000000000000D+00 0.108160945153D-01 0.518950119084D-05  5 -1 21 -13 13 -1 2 0.57986890D-02 0.20096150D-01 0.45500277D+04 0.11573740D+05 0.11573740D+05 0.12028063D+01  1  2  1  4  5  2        1 0.653895644988D+02
  </mgrwgt>
  </event>
  <event npLO=' -1 ' npNLO=' 0 '>
  5     66 0.12615437E+02 0.53081773E+02 0.75467711E-02 0.11737537E+00
       -1 -1    0    0    0  501 0.00000000E+00 0.00000000E+00 0.37929241E+02 0.37929241E+02 0.00000000E+00 0.0000E+00 0.9000E+01
        1 -1    0    0  501    0 0.00000000E+00 0.00000000E+00 -.58482886E+02 0.58482886E+02 0.00000000E+00 0.0000E+00 0.9000E+01
       23  2    1    2    0    0 0.00000000E+00 0.00000000E+00 -.20553645E+02 0.96412127E+02 0.94195785E+02 0.0000E+00 0.0000E+00
      -11  1    3    3    0    0 0.27105981E+02 -.38061815E+02 -.42409884E+01 0.46919313E+02 0.00000000E+00 0.0000E+00 0.9000E+01
       11  1    3    3    0    0 -.27105981E+02 0.38061815E+02 -.16312657E+02 0.49492815E+02 0.00000000E+00 0.0000E+00 0.9000E+01
#aMCatNLO 1  0  0  1  2 0.16147660D+02 0.00000000D+00  -5  5  0 0.00000000D+00 0.00000000D+00 0.00000000D+00 0.00000000D+00 0.00000000D+00
  <mgrwgt>
 0.3709072110D+03    6    2    0
 0.470978925975721D+02 0.000000000000000D+00 0.000000000000000D+00 0.470978925975721D+02
 0.470978925975721D+02 0.000000000000000D+00 0.000000000000000D+00 -.470978925975721D+02
 0.470978925975721D+02 0.271059807099878D+02 -.380618145855223D+02 0.589708125597049D+01
 0.470978925975721D+02 -.271059807099878D+02 0.380618145855223D+02 -.589708125597049D+01
 0.000000000000000D+00 -.000000000000000D+00 0.000000000000000D+00 -.000000000000000D+00
 0.489146137957092D+02 0.000000000000000D+00 0.000000000000000D+00 0.489146137957092D+02
 0.548966062926925D+02 0.000000000000000D+00 0.000000000000000D+00 -.548966062926925D+02
 0.505487060484422D+02 0.280078413361905D+02 -.416648165664878D+02 0.589708125597049D+01
 0.439200378591814D+02 -.262653422351653D+02 0.347033997683520D+02 -.589708125597049D+01
 0.934247618077804D+01 -.174249910102523D+01 0.696141679813576D+01 -.598199249698331D+01
0.270956514100D-01 0.000000000000D+00 0.000000000000D+00 0.141902177585D+00 0.000000000000D+00  5 -1 1 -11 11 21 0 0.58352678D-02 0.89973671D-02 0.21834359D+04 0.88728459D+04 0.88728459D+04 0.12147526D+01  1  2  2  1  5  1       -1 0.275123357808D+03
-.150519972028D-02 0.000000000000D+00 -.104054435863D-03 0.141902177585D+00 0.000000000000D+00  5 -1 1 -11 11 21 2 0.58352678D-02 0.89973671D-02 0.21834359D+04 0.88728459D+04 0.88728459D+04 0.12147526D+01  1  2  3  1  5  1       -1 -.247386130659D+02
0.151712060680D-02 0.000000000000D+00 0.000000000000D+00 0.141902177585D+00 0.000000000000D+00  5 -1 1 -11 11 21 2 0.58352678D-02 0.89973671D-02 0.21834359D+04 0.88728459D+04 0.88728459D+04 0.12147526D+01  1  2 15  1  5  1       -1 0.227312674938D+02
0.123795411635D-01 0.000000000000D+00 0.000000000000D+00 0.141902177585D+00 0.000000000000D+00  5 -1 1 -11 11 21 2 0.70638582D-02 0.89973671D-02 0.25453071D+04 0.89243436D+04 0.89243436D+04 0.12144886D+01  1  2 12  1  5  1       -1 0.140749488488D+03
-.673906185717D-02 0.000000000000D+00 0.000000000000D+00 0.141902177585D+00 0.000000000000D+00  5 -1 1 -11 11 21 2 0.58352678D-02 0.89973671D-02 0.21834359D+04 0.88728459D+04 0.88728459D+04 0.12147526D+01  1  2  4  1  5  1       -1 -.100972471830D+03
0.342016784738D-03 0.000000000000D+00 0.000000000000D+00 0.141902177585D+00 0.000000000000D+00  5 21 1 -11 11 1 2 0.70638582D-02 0.89973671D-02 0.25453071D+04 0.89243436D+04 0.89243436D+04 0.12144886D+01  1  2 12  3  5  1       -1 0.580141820583D+02
  </mgrwgt>
  </event>
  <event npLO=' -1 ' npNLO=' 0 '>
  5     66 -.12615437E+02 0.55839550E+02 0.75467711E-02 0.11784391E+00
       -1 -1    0    0    0  501 0.00000000E+00 0.00000000E+00 0.16081470E+01 0.16081470E+01 0.00000000E+00 0.0000E+00 0.9000E+01
        1 -1    0    0  501    0 0.00000000E+00 0.00000000E+00 -.13158260E+04 0.13158260E+04 0.00000000E+00 0.0000E+00 0.9000E+01
       23  2    1    2    0    0 0.00000000E+00 0.00000000E+00 -.13142179E+04 0.13174342E+04 0.92000905E+02 0.0000E+00 0.0000E+00
      -11  1    3    3    0    0 0.33529962E+02 0.18640415E+02 -.10205944E+04 0.10213151E+04 0.00000000E+00 0.0000E+00 0.9000E+01
       11  1    3    3    0    0 -.33529962E+02 -.18640415E+02 -.29362350E+03 0.29611903E+03 0.00000000E+00 0.0000E+00 0.9000E+01
#aMCatNLO 1  0  0  1  2 0.37544414D+00 0.00000000D+00  -5  5  0 0.00000000D+00 0.00000000D+00 0.00000000D+00 0.00000000D+00 0.00000000D+00
  <mgrwgt>
 -.9577962043D+03    9    2    0
 0.460004525730916D+02 0.000000000000000D+00 0.000000000000000D+00 0.460004525730916D+02
 0.460004525730916D+02 0.000000000000000D+00 0.000000000000000D+00 -.460004525730916D+02
 0.460004525730916D+02 0.335299622474684D+02 0.186404151835779D+02 -.253834235357731D+02
 0.460004525730916D+02 -.335299622474684D+02 -.186404151835779D+02 0.253834235357731D+02
 0.000000000000000D+00 -.000000000000000D+00 0.000000000000000D+00 0.000000000000000D+00
 0.479561072816897D+02 0.000000000000000D+00 0.000000000000000D+00 0.479561072816897D+02
 0.460186849448306D+02 0.000000000000000D+00 0.000000000000000D+00 -.460186849448306D+02
 0.459456604504055D+02 0.335570261239129D+02 0.184556636712567D+02 -.253834235357731D+02
 0.460560035423322D+02 -.335028658920891D+02 -.188253884132990D+02 0.253834235357731D+02
 0.197312823378263D+01 -.541602318237615D-01 0.369724742042267D+00 0.193742233685914D+01
0.410121593487D-01 0.000000000000D+00 0.000000000000D+00 0.625577382297D+00 0.000000000000D+00  5 -1 1 -11 11 21 0 0.24740723D-03 0.20243477D+00 0.14717234D+04 0.84641665D+04 0.84641665D+04 0.12169109D+01  1  2  2  1  5  1       -1 0.470909676366D+03
-.218713761044D-02 0.000000000000D+00 -.157497490649D-03 0.625577382297D+00 0.000000000000D+00  5 -1 1 -11 11 21 2 0.24740723D-03 0.20243477D+00 0.14717234D+04 0.84641665D+04 0.84641665D+04 0.12169109D+01  1  2  3  1  5  1       -1 -.418743289542D+02
0.210082549269D-02 0.000000000000D+00 0.000000000000D+00 0.625577382297D+00 0.000000000000D+00  5 -1 1 -11 11 21 2 0.24740723D-03 0.20243477D+00 0.14717234D+04 0.84641665D+04 0.84641665D+04 0.12169109D+01  1  2 15  1  5  1       -1 0.357217330344D+02
-.671790805495D+01 0.000000000000D+00 0.000000000000D+00 0.625577382297D+00 0.000000000000D+00  5 -1 1 -11 11 21 2 0.24740723D-03 0.20243477D+00 0.14717234D+04 0.84641665D+04 0.84641665D+04 0.12169109D+01  1  2  4  1  5  1       -1 -.114229058493D+06
-.733033191267D+01 0.000000000000D+00 -.125671481268D+00 0.625577382297D+00 0.000000000000D+00  5 -1 1 -11 11 21 2 0.25802945D-03 0.20243477D+00 0.14717234D+04 0.84641665D+04 0.84641665D+04 0.12169109D+01  1  2  5  1  5  1       -1 -.121349228381D+06
0.732924879138D+01 0.000000000000D+00 0.125560519879D+00 0.625577382297D+00 0.000000000000D+00  5 -1 1 -11 11 21 2 0.24740723D-03 0.20243477D+00 0.14717234D+04 0.84641665D+04 0.84641665D+04 0.12169109D+01  1  2  6  1  5  1       -1 0.128359057269D+06
0.672351774064D+01 0.000000000000D+00 0.000000000000D+00 0.625577382297D+00 0.354145261598D+02  5 -1 1 -11 11 21 2 0.25792545D-03 0.20251501D+00 0.14861272D+04 0.84643062D+04 0.84643062D+04 0.12169101D+01  1  2 11  1  5  1       -1 0.108035361823D+06
-.542248188998D-01 0.000000000000D+00 -.930986217236D-03 0.625577382297D+00 0.000000000000D+00  5 21 1 -11 11 1 2 0.25802945D-03 0.20243477D+00 0.14717234D+04 0.84641665D+04 0.84641665D+04 0.12169109D+01  1  2  5  3  5  1       -1 -.195005950200D+05
0.494525091388D-01 0.000000000000D+00 0.000000000000D+00 0.625577382297D+00 0.260237758231D+00  5 21 1 -11 11 1 2 0.25792545D-03 0.20251501D+00 0.14861272D+04 0.84643062D+04 0.84643062D+04 0.12169101D+01  1  2 11  3  5  1       -1 0.172619095173D+05
  </mgrwgt>
  </event>
  <event npLO=' -1 ' npNLO=' 0 '>
  4     66 0.12615437E+02 0.35811120E+02 0.75467711E-02 0.12827183E+00
       -3 -1    0    0    0  501 0.00000000E+00 0.00000000E+00 0.88550533E+02 0.88550533E+02 0.00000000E+00 0.0000E+00 0.9000E+01
        3 -1    0    0  501    0 0.00000000E+00 0.00000000E+00 -.80234382E+01 0.80234382E+01 0.00000000E+00 0.0000E+00 0.9000E+01
      -13  1    1    2    0    0 -.21966513E+02 0.62375432E+01 0.15355656E+02 0.27517827E+02 0.00000000E+00 0.0000E+00 0.9000E+01
       13  1    1    2    0    0 0.21966513E+02 -.62375432E+01 0.65171439E+02 0.69056144E+02 0.00000000E+00 0.0000E+00 0.9000E+01
#aMCatNLO 1  0  0  2  1 0.80232516D+01 0.00000000D+00  -5  5  0 0.00000000D+00 0.00000000D+00 0.00000000D+00 0.00000000D+00 0.00000000D+00
  <mgrwgt>
 0.2915888131D+03   11    2    0
 0.266548255566994D+02 0.000000000000000D+00 0.000000000000000D+00 0.266548255566994D+02
 0.266548255566994D+02 0.000000000000000D+00 0.000000000000000D+00 -.266548255566994D+02
 0.266548255566994D+02 -.219665127067787D+02 0.623754316751744D+01 -.137493672652367D+02
 0.266548255566994D+02 0.219665127067787D+02 -.623754316751744D+01 0.137493672652367D+02
 0.000000000000000D+00 -.000000000000000D+00 -.000000000000000D+00 -.000000000000000D+00
 0.288751590856189D+02 0.000000000000000D+00 0.000000000000000D+00 0.288751590856189D+02
 0.326336905656842D+02 0.000000000000000D+00 0.000000000000000D+00 -.326336905656842D+02
 0.246004628666527D+02 -.189687464449000D+02 0.750495378855118D+01 -.137493672652367D+02
 0.291408358720745D+02 0.252298316058717D+02 -.485786087369560D+01 0.137493672652367D+02
 0.776755091257597D+01 -.626108516097165D+01 -.264709291485557D+01 -.375853148006528D+01
0.151431629364D-01 0.000000000000D+00 0.000000000000D+00 0.939304482066D-03 0.000000000000D+00  5 -3 3 -13 13 21 0 0.13623159D-01 0.12343751D-02 0.52143463D+03 0.28419189D+04 0.28419189D+04 0.12704561D+01  1  2  2  2  5  2        3 0.415612165692D+03
-.816814004961D-03 0.000000000000D+00 -.581537329622D-04 0.939304482066D-03 0.000000000000D+00  5 -3 3 -13 13 21 2 0.13623159D-01 0.12343751D-02 0.52143463D+03 0.28419189D+04 0.28419189D+04 0.12704561D+01  1  2  3  2  5  2        3 -.405520245647D+02
0.737011575728D-03 0.000000000000D+00 0.000000000000D+00 0.939304482066D-03 0.000000000000D+00  5 -3 3 -13 13 21 2 0.13623159D-01 0.12343751D-02 0.52143463D+03 0.28419189D+04 0.28419189D+04 0.12704561D+01  1  2 15  2  5  2        3 0.326486553750D+02
0.164291340225D-01 0.000000000000D+00 0.000000000000D+00 0.939304482066D-03 0.000000000000D+00  5 -3 3 -13 13 21 2 0.13623159D-01 0.16371408D-02 0.69934789D+03 0.28881272D+04 0.28881272D+04 0.12696107D+01  1  2 12  2  5  2        3 0.492192862558D+03
-.177374720539D-01 0.000000000000D+00 0.000000000000D+00 0.939304482066D-03 0.000000000000D+00  5 -3 3 -13 13 21 2 0.13623159D-01 0.12343751D-02 0.52143463D+03 0.28419189D+04 0.28419189D+04 0.12704561D+01  1  2  4  2  5  2        3 -.785746969767D+03
-.303294116304D-01 0.000000000000D+00 -.931497732888D-02 0.939304482066D-03 0.000000000000D+00  5 -3 3 -13 13 21 2 0.13623159D-01 0.16365206D-02 0.52143463D+03 0.28419189D+04 0.28419189D+04 0.12704561D+01  1  2  5  2  5  2        3 -.138156874678D+04
0.320326055296D-01 0.000000000000D+00 0.895646470932D-02 0.939304482066D-03 0.000000000000D+00  5 -3 3 -13 13 21 2 0.13623159D-01 0.12343751D-02 0.52143463D+03 0.28419189D+04 0.28419189D+04 0.12704561D+01  1  2  6  2  5  2        3 0.209176882831D+04
0.871055045098D-04 0.000000000000D+00 0.000000000000D+00 0.939304482066D-03 0.180909791631D-03  5 -3 3 -13 13 21 2 0.14757961D-01 0.15112541D-02 0.69934789D+03 0.28881272D+04 0.28881272D+04 0.12696107D+01  1  2 11  2  5  2        3 0.256168284213D+01
0.607842627878D-03 0.000000000000D+00 0.000000000000D+00 0.939304482066D-03 0.000000000000D+00  5 -3 21 -13 13 -3 2 0.13623159D-01 0.16371408D-02 0.69934789D+03 0.28881272D+04 0.28881272D+04 0.12696107D+01  1  2 12  4  5  2        3 0.359926988667D+03
-.931469529526D-03 0.000000000000D+00 -.344298193470D-03 0.939304482066D-03 0.000000000000D+00  5 -3 21 -13 13 -3 2 0.13623159D-01 0.16365206D-02 0.52143463D+03 0.28419189D+04 0.28419189D+04 0.12704561D+01  1  2  5  4  5  2        3 -.897121493325D+03
0.319123587021D-05 0.000000000000D+00 0.000000000000D+00 0.939304482066D-03 0.531736960103D-05  5 -3 21 -13 13 -3 2 0.14757961D-01 0.15112541D-02 0.69934789D+03 0.28881272D+04 0.28881272D+04 0.12696107D+01  1  2 11  4  5  2        3 0.186686409068D+01
  </mgrwgt>
  </event>
  <event npLO=' -1 ' npNLO=' 0 '>
  5     66 0.12615437E+02 0.51411671E+02 0.75467711E-02 0.11848366E+00
       -1 -1    0    0    0  501 0.00000000E+00 0.00000000E+00 0.22225541E+01 0.22225541E+01 0.00000000E+00 0.0000E+00 0.9000E+01
        1 -1    0    0  501    0 0.00000000E+00 0.00000000E+00 -.87160642E+03 0.87160642E+03 0.00000000E+00 0.0000E+00 0.9000E+01
       23  2    1    2    0    0 0.00000000E+00 0.00000000E+00 -.86938387E+03 0.87382898E+03 0.88027097E+02 0.0000E+00 0.0000E+00
      -13  1    3    3    0    0 0.37167833E+02 0.87799745E+01 -.21751079E+03 0.22083813E+03 0.00000000E+00 0.0000E+00 0.9000E+01
       13  1    3    3    0    0 -.37167833E+02 -.87799745E+01 -.65187308E+03 0.65299085E+03 0.00000000E+00 0.0000E+00 0.9000E+01
#aMCatNLO 1  0  0  2  1 0.14343498D+02 0.00000000D+00  -5  5  0 0.00000000D+00 0.00000000D+00 0.00000000D+00 0.00000000D+00 0.00000000D+00
  <mgrwgt>
 0.8278066383D+03    9    2    0
 0.440135485045335D+02 0.000000000000000D+00 0.000000000000000D+00 0.440135485045335D+02
 0.440135485045335D+02 0.000000000000000D+00 0.000000000000000D+00 -.440135485045335D+02
 0.440135485045335D+02 0.371678332364737D+02 0.877997446674418D+01 0.218782237128594D+02
 0.440135485045335D+02 -.371678332364737D+02 -.877997446674418D+01 -.218782237128594D+02
 0.000000000000000D+00 -.000000000000000D+00 -.000000000000000D+00 -.000000000000000D+00
 0.485497267159006D+02 0.000000000000000D+00 0.000000000000000D+00 0.485497267159006D+02
 0.522485743057965D+02 0.000000000000000D+00 0.000000000000000D+00 -.522485743057965D+02
 0.473481614665545D+02 0.395125168968839D+02 0.142110073501653D+02 0.218782237128594D+02
 0.414201294759637D+02 -.349752850795596D+02 -.370133578309299D+01 -.218782237128594D+02
 0.120300100791789D+02 -.453723181732429D+01 -.105096715670723D+02 -.369884758989591D+01
0.278786307676D-01 0.000000000000D+00 0.000000000000D+00 0.130710670263D+00 0.000000000000D+00  5 -1 1 -13 13 21 0 0.34193140D-03 0.13409330D+00 0.14585358D+04 0.77487698D+04 0.77487698D+04 0.12209861D+01  1  2  2  2  5  2        1 0.425275026074D+03
-.151089304883D-02 0.000000000000D+00 -.107061282760D-03 0.130710670263D+00 0.000000000000D+00  5 -1 1 -13 13 21 2 0.34193140D-03 0.13409330D+00 0.14585358D+04 0.77487698D+04 0.77487698D+04 0.12209861D+01  1  2  3  2  5  2        1 -.384262935523D+02
0.146643528587D-02 0.000000000000D+00 0.000000000000D+00 0.130710670263D+00 0.000000000000D+00  5 -1 1 -13 13 21 2 0.34193140D-03 0.13409330D+00 0.14585358D+04 0.77487698D+04 0.77487698D+04 0.12209861D+01  1  2 15  2  5  2        1 0.333489963660D+02
0.236768890927D-01 0.000000000000D+00 0.000000000000D+00 0.130710670263D+00 0.000000000000D+00  5 -1 1 -13 13 21 2 0.34193140D-03 0.17558828D+00 0.19628543D+04 0.78798095D+04 0.78798095D+04 0.12202088D+01  1  2 12  2  5  2        1 0.342218400907D+03
-.251589878329D-01 0.000000000000D+00 0.000000000000D+00 0.130710670263D+00 0.000000000000D+00  5 -1 1 -13 13 21 2 0.34193140D-03 0.13409330D+00 0.14585358D+04 0.77487698D+04 0.77487698D+04 0.12209861D+01  1  2  4  2  5  2        1 -.572154122244D+03
-.555664573665D-01 0.000000000000D+00 -.171137288124D-01 0.130710670263D+00 0.000000000000D+00  5 -1 1 -13 13 21 2 0.34193140D-03 0.16996653D+00 0.14585358D+04 0.77487698D+04 0.77487698D+04 0.12209861D+01  1  2  5  2  5  2        1 -.128963728407D+04
0.584434525743D-01 0.000000000000D+00 0.166438409155D-01 0.130710670263D+00 0.000000000000D+00  5 -1 1 -13 13 21 2 0.34193140D-03 0.13409330D+00 0.14585358D+04 0.77487698D+04 0.77487698D+04 0.12209861D+01  1  2  6  2  5  2        1 0.196123832255D+04
0.846946697840D-03 0.000000000000D+00 0.000000000000D+00 0.130710670263D+00 0.000000000000D+00  5 -1 21 -13 13 -1 2 0.34193140D-03 0.17558828D+00 0.19628543D+04 0.78798095D+04 0.78798095D+04 0.12202088D+01  1  2 12  4  5  2        1 0.152656729928D+02
-.154523559950D-02 0.000000000000D+00 -.556834231876D-03 0.130710670263D+00 0.000000000000D+00  5 -1 21 -13 13 -1 2 0.34193140D-03 0.16996653D+00 0.14585358D+04 0.77487698D+04 0.77487698D+04 0.12209861D+01  1  2  5  4  5  2        1 -.493220807335D+02
  </mgrwgt>
  </event>
  <event npLO=' -1 ' npNLO=' 0 '>
  6     66 0.12615437E+02 0.91788654E+02 0.75467711E-02 0.11787380E+00
       21 -1    0    0  502  501 0.00000000E+00 0.00000000E+00 0.63220894E+02 0.63220894E+02 0.00000000E+00 0.0000E+00 0.9000E+01
        1 -1    0    0  501    0 0.00000000E+00 0.00000000E+00 -.36373579E+02 0.36373579E+02 0.00000000E+00 0.0000E+00 0.9000E+01
       23  2    1    2    0    0 0.21585191E+01 0.24686204E+01 0.28152666E+02 0.96064993E+02 0.91788654E+02 0.0000E+00 0.0000E+00
      -11  1    3    3    0    0 -.10424315E+02 -.19264284E+02 -.27412312E+02 0.35088657E+02 0.00000000E+00 0.0000E+00 0.9000E+01
       11  1    3    3    0    0 0.12582834E+02 0.21732905E+02 0.55564978E+02 0.60976336E+02 0.00000000E+00 0.0000E+00 0.9000E+01
        1  1    1    2  502    0 -.21585191E+01 -.24686204E+01 -.13053509E+01 0.35294804E+01 0.00000000E+00 0.0000E+00 0.9000E+01
#aMCatNLO 2  0  0  1  2 0.71681514D+01 0.00000000D+00  -5  5  0 0.00000000D+00 0.00000000D+00 0.00000000D+00 0.00000000D+00 0.00000000D+00
  <mgrwgt>
 0.1139242398D+02    2    2    0
 0.458943271301980D+02 0.000000000000000D+00 0.000000000000000D+00 0.458943271301980D+02
 0.458943271301980D+02 0.000000000000000D+00 0.000000000000000D+00 -.458943271301980D+02
 0.458943271301980D+02 -.114939203385935D+02 -.204875536664230D+02 -.394263769924290D+02
 0.458943271301980D+02 0.114939203385935D+02 0.204875536664230D+02 0.394263769924290D+02
 0.000000000000000D+00 -.000000000000000D+00 -.000000000000000D+00 -.000000000000000D+00
 0.467458727078885D+02 0.000000000000000D+00 0.000000000000000D+00 0.467458727078885D+02
 0.491930107104513D+02 0.000000000000000D+00 0.000000000000000D+00 -.491930107104513D+02
 0.451023079709420D+02 -.104243146214773D+02 -.192642842127345D+02 -.394263769924290D+02
 0.467449039735730D+02 0.125828336935512D+02 0.217329045686456D+02 0.394263769924290D+02
 0.409167147382490D+01 -.215851907207384D+01 -.246862035591112D+01 -.244713800256283D+01
-.308191894426D-03 0.000000000000D+00 0.000000000000D+00 0.928393986290D+00 0.000000000000D+00  5 21 1 -11 11 1 2 0.10425375D-01 0.52206946D-02 0.63241591D+03 0.84359103D+04 0.84359103D+04 0.12170644D+01  1  2 13  3  5  1       -1 -.569859572991D+02
0.361601642134D-03 0.000000000000D+00 0.000000000000D+00 0.928393986290D+00 0.243786538707D-02  5 21 1 -11 11 1 2 0.97262914D-02 0.55959353D-02 0.63241591D+03 0.84359103D+04 0.84359103D+04 0.12170644D+01  1  2  1  3  5  1       -1 0.683783812753D+02
  </mgrwgt>
  </event>
  <event npLO=' -1 ' npNLO=' 0 '>
  5     66 0.12615437E+02 0.59103882E+02 0.75467711E-02 0.11736887E+00
       -3 -1    0    0    0  501 0.00000000E+00 0.00000000E+00 0.27336053E+02 0.27336053E+02 0.00000000E+00 0.0000E+00 0.9000E+01
        3 -1    0    0  501    0 0.00000000E+00 0.00000000E+00 -.76331382E+02 0.76331382E+02 0.00000000E+00 0.0000E+00 0.9000E+01
       23  2    1    2    0    0 0.00000000E+00 0.00000000E+00 -.48995329E+02 0.10366744E+03 0.91358606E+02 0.0000E+00 0.0000E+00
      -11  1    3    3    0    0 -.10839883E+02 -.43627589E+02 -.15298003E+02 0.47485771E+02 0.00000000E+00 0.0000E+00 0.9000E+01
       11  1    3    3    0    0 0.10839883E+02 0.43627589E+02 -.33697326E+02 0.56181664E+02 0.00000000E+00 0.0000E+00 0.9000E+01
#aMCatNLO 1  0  0  1  2 0.64264803D+02 0.00000000D+00  -5  5  0 0.00000000D+00 0.00000000D+00 0.00000000D+00 0.00000000D+00 0.00000000D+00
  <mgrwgt>
 0.1570242419D+03    5    2    0
 0.456793028497569D+02 0.000000000000000D+00 0.000000000000000D+00 0.456793028497569D+02
 0.456793028497569D+02 0.000000000000000D+00 0.000000000000000D+00 -.456793028497569D+02
 0.456793028497569D+02 -.108398832823191D+02 -.436275888416876D+02 0.810735043810050D+01
 0.456793028497569D+02 0.108398832823191D+02 0.436275888416876D+02 -.810735043810050D+01
 0.000000000000000D+00 -.000000000000000D+00 -.000000000000000D+00 -.000000000000000D+00
 0.510358822254641D+02 0.000000000000000D+00 0.000000000000000D+00 0.510358822254641D+02
 0.858694764378799D+02 0.000000000000000D+00 0.000000000000000D+00 -.858694764378799D+02
 0.380721573807209D+02 -.208749861773381D+01 -.371403067571765D+02 0.810735043810050D+01
 0.564314217084411D+02 0.215108893430305D+02 0.515369562991612D+02 -.810735043810050D+01
 0.424017795741820D+02 -.194233907252967D+02 -.143966495419846D+02 -.348335942124158D+02
0.222562095835D-01 0.000000000000D+00 0.000000000000D+00 0.905477363826D+00 0.000000000000D+00  5 -3 3 -11 11 21 0 0.42055466D-02 0.11743290D-01 0.20208696D+04 0.83463948D+04 0.83463948D+04 0.12175546D+01  1  2  2  1  5  1       -3 0.152774982843D+03
-.123607105166D-02 0.000000000000D+00 -.854697049951D-04 0.905477363826D+00 0.000000000000D+00  5 -3 3 -11 11 21 2 0.42055466D-02 0.11743290D-01 0.20208696D+04 0.83463948D+04 0.83463948D+04 0.12175546D+01  1  2  3  1  5  1       -3 -.138118388766D+02
0.116452969562D-02 0.000000000000D+00 0.000000000000D+00 0.905477363826D+00 0.000000000000D+00  5 -3 3 -11 11 21 2 0.42055466D-02 0.11743290D-01 0.20208696D+04 0.83463948D+04 0.83463948D+04 0.12175546D+01  1  2 15  1  5  1       -3 0.118502768839D+02
0.801179607381D-03 0.000000000000D+00 0.000000000000D+00 0.905477363826D+00 0.000000000000D+00  5 -3 3 -11 11 21 2 0.88327911D-02 0.11743290D-01 0.34352504D+04 0.89309265D+04 0.89309265D+04 0.12144549D+01  1  2 12  1  5  1       -3 0.264773793457D+01
0.642993409071D-04 0.000000000000D+00 0.000000000000D+00 0.905477363826D+00 0.000000000000D+00  5 21 3 -11 11 3 2 0.88327911D-02 0.11743290D-01 0.34352504D+04 0.89309265D+04 0.89309265D+04 0.12144549D+01  1  2 12  3  5  1       -3 0.356308310721D+01
  </mgrwgt>
  </event>
  <event npLO=' -1 ' npNLO=' 0 '>
  5     66 0.12615437E+02 0.51503609E+02 0.75467711E-02 0.11852999E+00
       -3 -1    0    0    0  501 0.00000000E+00 0.00000000E+00 0.58804321E+03 0.58804321E+03 0.00000000E+00 0.0000E+00 0.9000E+01
        3 -1    0    0  501    0 0.00000000E+00 0.00000000E+00 -.32405136E+01 0.32405136E+01 0.00000000E+00 0.0000E+00 0.9000E+01
       23  2    1    2    0    0 0.00000000E+00 0.00000000E+00 0.58480269E+03 0.59128372E+03 0.87305487E+02 0.0000E+00 0.0000E+00
      -13  1    3    3    0    0 -.27682853E+02 -.19589721E+02 0.47855065E+03 0.47975079E+03 0.00000000E+00 0.0000E+00 0.9000E+01
       13  1    3    3    0    0 0.27682853E+02 0.19589721E+02 0.10625204E+03 0.11153293E+03 0.00000000E+00 0.0000E+00 0.9000E+01
#aMCatNLO 1  0  0  1  2 0.15974524D+02 0.00000000D+00  -5  5  0 0.00000000D+00 0.00000000D+00 0.00000000D+00 0.00000000D+00 0.00000000D+00
  <mgrwgt>
 0.2992322124D+03    9    2    0
 0.436527437028060D+02 0.000000000000000D+00 0.000000000000000D+00 0.436527437028060D+02
 0.436527437028060D+02 0.000000000000000D+00 0.000000000000000D+00 -.436527437028060D+02
 0.436527437028060D+02 -.276828526230121D+02 -.195897214821386D+02 0.274857147567185D+02
 0.436527437028060D+02 0.276828526230121D+02 0.195897214821386D+02 -.274857147567185D+02
 0.000000000000000D+00 -.000000000000000D+00 -.000000000000000D+00 0.000000000000000D+00
 0.649667825193413D+02 0.000000000000000D+00 0.000000000000000D+00 0.649667825193413D+02
 0.468921572473779D+02 0.000000000000000D+00 0.000000000000000D+00 -.468921572473779D+02
 0.385576915163917D+02 -.223159177267808D+02 -.152718982250762D+02 0.274857147567185D+02
 0.499822968808407D+02 0.337956187880192D+02 0.245075832454303D+02 -.274857147567185D+02
 0.233189513694868D+02 -.114797010612384D+02 -.923568502035408D+01 0.180746252719634D+02
0.777659899999D-01 0.000000000000D+00 0.000000000000D+00 0.983631328961D-01 0.000000000000D+00  5 -3 3 -13 13 21 0 0.90468185D-01 0.49854056D-03 0.11500975D+04 0.76222481D+04 0.76222481D+04 0.12217507D+01  1  2  2  1  5  1       -3 0.197654818387D+03
-.398552040045D-02 0.000000000000D+00 -.298641877855D-03 0.983631328961D-01 0.000000000000D+00  5 -3 3 -13 13 21 2 0.90468185D-01 0.49854056D-03 0.11500975D+04 0.76222481D+04 0.76222481D+04 0.12217507D+01  1  2  3  1  5  1       -3 -.172633375660D+02
0.385862035169D-02 0.000000000000D+00 0.000000000000D+00 0.983631328961D-01 0.000000000000D+00  5 -3 3 -13 13 21 2 0.90468185D-01 0.49854056D-03 0.11500975D+04 0.76222481D+04 0.76222481D+04 0.12217507D+01  1  2 15  1  5  1       -3 0.146391190774D+02
0.930794777549D-01 0.000000000000D+00 0.000000000000D+00 0.983631328961D-01 0.000000000000D+00  5 -3 3 -13 13 21 2 0.14463199D+00 0.49854056D-03 0.17439565D+04 0.78393295D+04 0.78393295D+04 0.12204474D+01  1  2 12  1  5  1       -3 0.104702173986D+03
-.922909298674D-01 0.000000000000D+00 0.000000000000D+00 0.983631328961D-01 0.000000000000D+00  5 -3 3 -13 13 21 2 0.90468185D-01 0.49854056D-03 0.11500975D+04 0.76222481D+04 0.76222481D+04 0.12217507D+01  1  2  4  1  5  1       -3 -.350140150871D+03
-.102180767633D+00 0.000000000000D+00 -.276161161796D-01 0.983631328961D-01 0.000000000000D+00  5 -3 3 -13 13 21 2 0.14009838D+00 0.49854056D-03 0.11500975D+04 0.76222481D+04 0.76222481D+04 0.12217507D+01  1  2  5  1  5  1       -3 -.189766178448D+03
0.106368537886D+00 0.000000000000D+00 0.251703125737D-01 0.983631328961D-01 0.000000000000D+00  5 -3 3 -13 13 21 2 0.90468185D-01 0.49854056D-03 0.11500975D+04 0.76222481D+04 0.76222481D+04 0.12217507D+01  1  2  6  1  5  1       -3 0.584147518466D+03
0.499377009803D-02 0.000000000000D+00 0.000000000000D+00 0.983631328961D-01 0.000000000000D+00  5 21 3 -13 13 3 2 0.14463199D+00 0.49854056D-03 0.17439565D+04 0.78393295D+04 0.78393295D+04 0.12204474D+01  1  2 12  3  5  1       -3 0.913319798418D+02
-.413663793609D-02 0.000000000000D+00 -.140451852641D-02 0.983631328961D-01 0.000000000000D+00  5 21 3 -13 13 3 2 0.14009838D+00 0.49854056D-03 0.11500975D+04 0.76222481D+04 0.76222481D+04 0.12217507D+01  1  2  5  3  5  1       -3 -.136073730446D+03
  </mgrwgt>
  </event>
  <event npLO=' -1 ' npNLO=' 0 '>
  6     66 0.12615437E+02 0.87060570E+02 0.75467711E-02 0.11771589E+00
       -5 -1    0    0    0  501 0.00000000E+00 0.00000000E+00 0.42426947E+02 0.42426947E+02 0.00000000E+00 0.0000E+00 0.9000E+01
       21 -1    0    0  501  502 0.00000000E+00 0.00000000E+00 -.98996978E+02 0.98996978E+02 0.00000000E+00 0.0000E+00 0.9000E+01
       23  2    1    2    0    0 -.31067008E+02 0.65207862E+01 -.58556418E+02 0.10961787E+03 0.87060570E+02 0.0000E+00 0.0000E+00
      -11  1    3    3    0    0 -.10333712E+02 0.37213647E+02 -.61326805E+02 0.72474948E+02 0.00000000E+00 0.0000E+00 0.9000E+01
       11  1    3    3    0    0 -.20733297E+02 -.30692860E+02 0.27703873E+01 0.37142917E+02 0.00000000E+00 0.0000E+00 0.9000E+01
       -5  1    1    2    0  502 0.31067008E+02 -.65207862E+01 0.19863869E+01 0.31806059E+02 0.00000000E+00 0.0000E+00 0.9000E+01
#aMCatNLO 2  0  0  2  1 0.60598699D+02 0.00000000D+00  -5  5  0 0.00000000D+00 0.00000000D+00 0.00000000D+00 0.00000000D+00 0.00000000D+00
  <mgrwgt>
 0.2631928234D+02    2    2    0
 0.435302847649792D+02 0.000000000000000D+00 0.000000000000000D+00 0.435302847649792D+02
 0.435302847649792D+02 0.000000000000000D+00 0.000000000000000D+00 -.435302847649792D+02
 0.435302847649792D+02 0.531145144808386D+01 0.339298169512608D+02 -.267477419026123D+02
 0.435302847649792D+02 -.531145144808386D+01 -.339298169512608D+02 0.267477419026123D+02
 0.000000000000000D+00 0.000000000000000D+00 -.000000000000000D+00 0.000000000000000D+00
 0.769972141098063D+02 0.000000000000000D+00 0.000000000000000D+00 0.769972141098063D+02
 0.545492402946926D+02 0.000000000000000D+00 0.000000000000000D+00 -.545492402946926D+02
 0.469795997451485D+02 -.103337117541342D+02 0.372136466461977D+02 -.267477419026123D+02
 0.456876675530790D+02 -.207332966105041D+02 -.306928604273496D+02 0.267477419026123D+02
 0.388791871062714D+02 0.310670083646384D+02 -.652078621884816D+01 0.224479738151137D+02
-.119251861995D-03 0.000000000000D+00 0.000000000000D+00 0.729356935702D-01 0.000000000000D+00  5 -5 21 -11 11 -5 2 0.36901576D-02 0.26939658D-01 0.28839690D+04 0.85872224D+04 0.85872224D+04 0.12162490D+01  1  2 13  4  5  2        5 -.292690556190D+01
0.107669277498D-02 0.000000000000D+00 0.000000000000D+00 0.729356935702D-01 0.349847926144D-04  5 -5 21 -11 11 -5 2 0.65272226D-02 0.15230304D-01 0.28839690D+04 0.85872224D+04 0.85872224D+04 0.12162490D+01  1  2  1  4  5  2        5 0.292461879021D+02
  </mgrwgt>
  </event>
  <event npLO=' -1 ' npNLO=' 0 '>
  5     66 0.12615437E+02 0.92372458E+02 0.75467711E-02 0.11155718E+00
       -3 -1    0    0    0  501 0.00000000E+00 0.00000000E+00 0.14710561E+03 0.14710561E+03 0.00000000E+00 0.0000E+00 0.9000E+01
        3 -1    0    0  501    0 0.00000000E+00 0.00000000E+00 -.14500927E+02 0.14500927E+02 0.00000000E+00 0.0000E+00 0.9000E+01
       23  2    1    2    0    0 0.00000000E+00 0.00000000E+00 0.13260469E+03 0.16160654E+03 0.92372458E+02 0.0000E+00 0.0000E+00
      -11  1    3    3    0    0 0.21425903E+02 -.27669940E+02 0.13570566E+02 0.37534719E+02 0.00000000E+00 0.0000E+00 0.9000E+01
       11  1    3    3    0    0 -.21425903E+02 0.27669940E+02 0.11903412E+03 0.12407182E+03 0.00000000E+00 0.0000E+00 0.9000E+01
#aMCatNLO 1  0  0  2  1 0.15235874D+03 0.00000000D+00  -5  5  0 0.00000000D+00 0.00000000D+00 0.00000000D+00 0.00000000D+00 0.00000000D+00
  <mgrwgt>
 0.1983951769D+03    3    2    0
 0.461862290550231D+02 0.000000000000000D+00 0.000000000000000D+00 0.461862290550231D+02
 0.461862290550231D+02 0.000000000000000D+00 0.000000000000000D+00 -.461862290550231D+02
 0.461862290550231D+02 0.214259027756841D+02 -.276699401032679D+02 -.301408835180981D+02
 0.461862290550231D+02 -.214259027756841D+02 0.276699401032679D+02 0.301408835180981D+02
 0.000000000000000D+00 0.000000000000000D+00 -.000000000000000D+00 0.000000000000000D+00
 0.134771226072412D+03 0.000000000000000D+00 0.000000000000000D+00 0.134771226072412D+03
 0.101286932085600D+03 0.000000000000000D+00 0.000000000000000D+00 -.101286932085600D+03
 0.338013074986006D+02 -.912517664734601D+01 -.122795228131278D+02 -.301408835180981D+02
 0.999261764381946D+02 -.772332434845793D+02 0.557834561420976D+02 0.301408835180981D+02
 0.102330674221217D+03 0.863584201319253D+02 -.435039333289698D+02 0.334842939868125D+02
0.352616574060D-01 0.000000000000D+00 0.000000000000D+00 0.499762418214D+00 0.000000000000D+00  5 -3 3 -11 11 21 0 0.22631633D-01 0.22309118D-02 0.12246949D+04 0.85326710D+04 0.85326710D+04 0.12165411D+01  1  2  2  2  5  2        3 0.201159494635D+03
-.177562006123D-02 0.000000000000D+00 -.135414049047D-03 0.499762418214D+00 0.000000000000D+00  5 -3 3 -11 11 21 2 0.22631633D-01 0.22309118D-02 0.12246949D+04 0.85326710D+04 0.85326710D+04 0.12165411D+01  1  2  3  2  5  2        3 -.172107333027D+02
0.171107375296D-02 0.000000000000D+00 0.000000000000D+00 0.499762418214D+00 0.000000000000D+00  5 -3 3 -11 11 21 2 0.22631633D-01 0.22309118D-02 0.12246949D+04 0.85326710D+04 0.85326710D+04 0.12165411D+01  1  2 15  2  5  2        3 0.144464155240D+02
  </mgrwgt>
  </event>
  <event npLO=' -1 ' npNLO=' 0 '>
  5     66 0.12615437E+02 0.38920762E+02 0.75467711E-02 0.11799155E+00
       -1 -1    0    0    0  501 0.00000000E+00 0.00000000E+00 0.39667872E+01 0.39667872E+01 0.00000000E+00 0.0000E+00 0.9000E+01
        1 -1    0    0  501    0 0.00000000E+00 0.00000000E+00 -.52417011E+03 0.52417011E+03 0.00000000E+00 0.0000E+00 0.9000E+01
       23  2    1    2    0    0 0.00000000E+00 0.00000000E+00 -.52020332E+03 0.52813689E+03 0.91198054E+02 0.0000E+00 0.0000E+00
      -11  1    3    3    0    0 0.14751986E+02 0.32850509E+02 -.98106697E+02 0.10450694E+03 0.00000000E+00 0.0000E+00 0.9000E+01
       11  1    3    3    0    0 -.14751986E+02 -.32850509E+02 -.42209662E+03 0.42362995E+03 0.00000000E+00 0.0000E+00 0.9000E+01
#aMCatNLO 1  0  0  2  1 0.87886269D+01 0.00000000D+00  -5  5  0 0.00000000D+00 0.00000000D+00 0.00000000D+00 0.00000000D+00 0.00000000D+00
  <mgrwgt>
 0.6341471769D+03    8    2    0
 0.455990268686317D+02 0.000000000000000D+00 0.000000000000000D+00 0.455990268686317D+02
 0.455990268686317D+02 0.000000000000000D+00 0.000000000000000D+00 -.455990268686317D+02
 0.455990268686317D+02 0.147519857609946D+02 0.328505089332955D+02 0.279730983320954D+02
 0.455990268686317D+02 -.147519857609946D+02 -.328505089332955D+02 -.279730983320954D+02
 0.000000000000000D+00 -.000000000000000D+00 -.000000000000000D+00 0.000000000000000D+00
 0.499528076892115D+02 0.000000000000000D+00 0.000000000000000D+00 0.499528076892115D+02
 0.460823710956272D+02 0.000000000000000D+00 0.000000000000000D+00 -.460823710956272D+02
 0.464891402500811D+02 0.160252977744397D+02 0.334953095542520D+02 0.279730983320954D+02
 0.447527385698625D+02 -.135026831419024D+02 -.322178665832293D+02 -.279730983320954D+02
 0.479329996489511D+01 -.252261463253736D+01 -.127744297102271D+01 0.387043659358431D+01
0.262608601818D-01 0.000000000000D+00 0.000000000000D+00 0.134995751790D+01 0.000000000000D+00  5 -1 1 -11 11 21 0 0.61027495D-03 0.80641555D-01 0.12967770D+04 0.83170850D+04 0.83170850D+04 0.12177164D+01  1  2  2  2  5  2        1 0.380847412765D+03
-.136008335535D-02 0.000000000000D+00 -.100848617741D-03 0.134995751790D+01 0.000000000000D+00  5 -1 1 -11 11 21 2 0.61027495D-03 0.80641555D-01 0.12967770D+04 0.83170850D+04 0.83170850D+04 0.12177164D+01  1  2  3  2  5  2        1 -.332786712337D+02
0.121615232357D-02 0.000000000000D+00 0.000000000000D+00 0.134995751790D+01 0.000000000000D+00  5 -1 1 -11 11 21 2 0.61027495D-03 0.80641555D-01 0.12967770D+04 0.83170850D+04 0.83170850D+04 0.12177164D+01  1  2 15  2  5  2        1 0.261530490660D+02
0.220954965649D-01 0.000000000000D+00 0.000000000000D+00 0.134995751790D+01 0.000000000000D+00  5 -1 1 -11 11 21 2 0.61027495D-03 0.89277591D-01 0.14022057D+04 0.83250805D+04 0.83250805D+04 0.12176722D+01  1  2 12  2  5  2        1 0.414104303728D+03
-.802101771121D-02 0.000000000000D+00 0.000000000000D+00 0.134995751790D+01 0.000000000000D+00  5 -1 1 -11 11 21 2 0.61027495D-03 0.80641555D-01 0.12967770D+04 0.83170850D+04 0.83170850D+04 0.12177164D+01  1  2  4  2  5  2        1 -.172489963382D+03
0.367142001316D-05 0.000000000000D+00 0.000000000000D+00 0.134995751790D+01 0.133863808149D+01  5 -1 1 -11 11 21 2 0.66854381D-03 0.81496346D-01 0.14022057D+04 0.83250805D+04 0.83250805D+04 0.12176722D+01  1  2 11  2  5  2        1 0.687559157227D-01
0.364667857022D-03 0.000000000000D+00 0.000000000000D+00 0.134995751790D+01 0.000000000000D+00  5 -1 21 -11 11 -1 2 0.61027495D-03 0.89277591D-01 0.14022057D+04 0.83250805D+04 0.83250805D+04 0.12176722D+01  1  2 12  4  5  2        1 0.187312773946D+02
0.194905413672D-06 0.000000000000D+00 0.000000000000D+00 0.134995751790D+01 0.268302467564D-02  5 -1 21 -11 11 -1 2 0.66854381D-03 0.81496346D-01 0.14022057D+04 0.83250805D+04 0.83250805D+04 0.12176722D+01  1  2 11  4  5  2        1 0.110126973876D-01
  </mgrwgt>
  </event>
  <event npLO=' -1 ' npNLO=' 0 '>
  5     66 0.12615437E+02 0.53377247E+02 0.75467711E-02 0.11762049E+00
       -1 -1    0    0    0  501 0.00000000E+00 0.00000000E+00 0.36799949E+02 0.36799949E+02 0.00000000E+00 0.0000E+00 0.9000E+01
        1 -1    0    0  501    0 0.00000000E+00 0.00000000E+00 -.57948542E+02 0.57948542E+02 0.00000000E+00 0.0000E+00 0.9000E+01
       23  2    1    2    0    0 0.00000000E+00 0.00000000E+00 -.21148594E+02 0.94748491E+02 0.92358072E+02 0.0000E+00 0.0000E+00
      -13  1    3    3    0    0 0.18471211E+02 -.42316217E+02 -.97437154E+01 0.47188853E+02 0.00000000E+00 0.0000E+00 0.9000E+01
       13  1    3    3    0    0 -.18471211E+02 0.42316217E+02 -.11404878E+02 0.47559638E+02 0.00000000E+00 0.0000E+00 0.9000E+01
#aMCatNLO 1  0  0  2  1 0.12344359D+02 0.00000000D+00  -5  5  0 0.00000000D+00 0.00000000D+00 0.00000000D+00 0.00000000D+00 0.00000000D+00
  <mgrwgt>
 0.3214050863D+03    7    2    0
 0.461790360863370D+02 0.000000000000000D+00 0.000000000000000D+00 0.461790360863370D+02
 0.461790360863370D+02 0.000000000000000D+00 0.000000000000000D+00 -.461790360863370D+02
 0.461790360863370D+02 0.184712114175283D+02 -.423162170726167D+02 0.809626639490281D+00
 0.461790360863370D+02 -.184712114175283D+02 0.423162170726167D+02 -.809626639490281D+00
 0.000000000000000D+00 0.000000000000000D+00 0.000000000000000D+00 -.000000000000000D+00
 0.470329212065725D+02 0.000000000000000D+00 0.000000000000000D+00 0.470329212065725D+02
 0.130144062750638D+03 0.000000000000000D+00 0.000000000000000D+00 -.130144062750638D+03
 0.520599453233021D+02 0.181267209226165D+02 -.487955366848588D+02 0.809626639490281D+00
 0.411074473975324D+02 -.187772952496589D+02 0.365592658481083D+02 -.809626639490281D+00
 0.840095912363762D+02 0.650574327042321D+00 0.122362708367505D+02 -.831111415440656D+02
0.307189286032D-01 0.000000000000D+00 0.000000000000D+00 0.456417332792D+00 0.000000000000D+00  5 -1 1 -13 13 21 0 0.56615305D-02 0.89151604D-02 0.21318479D+04 0.85300135D+04 0.85300135D+04 0.12165554D+01  1  2  2  2  5  2        1 0.328748123733D+03
-.170660709559D-02 0.000000000000D+00 -.117968774316D-03 0.456417332792D+00 0.000000000000D+00  5 -1 1 -13 13 21 2 0.56615305D-02 0.89151604D-02 0.21318479D+04 0.85300135D+04 0.85300135D+04 0.12165554D+01  1  2  3  2  5  2        1 -.296213628686D+02
0.156505252332D-02 0.000000000000D+00 0.000000000000D+00 0.456417332792D+00 0.000000000000D+00  5 -1 1 -13 13 21 2 0.56615305D-02 0.89151604D-02 0.21318479D+04 0.85300135D+04 0.85300135D+04 0.12165554D+01  1  2 15  2  5  2        1 0.247884797513D+02
0.374714925517D+00 0.000000000000D+00 0.000000000000D+00 0.456417332792D+00 0.000000000000D+00  5 -1 1 -13 13 21 2 0.56615305D-02 0.25589732D-01 0.27776419D+04 0.86801631D+04 0.86801631D+04 0.12157560D+01  1  2 12  2  5  2        1 0.153318132951D+04
-.358828056348D+00 0.000000000000D+00 -.109185657401D-01 0.456417332792D+00 0.000000000000D+00  5 -1 1 -13 13 21 2 0.56615305D-02 0.25363811D-01 0.21318479D+04 0.85300135D+04 0.85300135D+04 0.12165554D+01  1  2  5  2  5  2        1 -.154765013440D+04
0.445801169853D-01 0.000000000000D+00 0.000000000000D+00 0.456417332792D+00 0.000000000000D+00  5 -1 21 -13 13 -1 2 0.56615305D-02 0.25589732D-01 0.27776419D+04 0.86801631D+04 0.86801631D+04 0.12157560D+01  1  2 12  4  5  2        1 0.136606589436D+04
-.416638678145D-01 0.000000000000D+00 -.128590273332D-02 0.456417332792D+00 0.000000000000D+00  5 -1 21 -13 13 -1 2 0.56615305D-02 0.25363811D-01 0.21318479D+04 0.85300135D+04 0.85300135D+04 0.12165554D+01  1  2  5  4  5  2        1 -.135410724378D+04
  </mgrwgt>
  </event>
  <event npLO=' -1 ' npNLO=' 0 '>
  5     66 0.12615437E+02 0.58499358E+02 0.75467711E-02 0.11728744E+00
       -1 -1    0    0    0  501 0.00000000E+00 0.00000000E+00 0.21914154E+03 0.21914154E+03 0.00000000E+00 0.0000E+00 0.9000E+01
        1 -1    0    0  501    0 0.00000000E+00 0.00000000E+00 -.99245611E+01 0.99245611E+01 0.00000000E+00 0.0000E+00 0.9000E+01
       23  2    1    2    0    0 0.00000000E+00 0.00000000E+00 0.20921698E+03 0.22906610E+03 0.93271295E+02 0.0000E+00 0.0000E+00
      -11  1    3    3    0    0 0.17903587E+02 0.29225926E+02 0.18227865E+03 0.18547290E+03 0.00000000E+00 0.0000E+00 0.9000E+01
       11  1    3    3    0    0 -.17903587E+02 -.29225926E+02 0.26938336E+02 0.43593200E+02 0.00000000E+00 0.0000E+00 0.9000E+01
#aMCatNLO 1  0  0  1  2 0.22433711D+02 0.00000000D+00  -5  5  0 0.00000000D+00 0.00000000D+00 0.00000000D+00 0.00000000D+00 0.00000000D+00
  <mgrwgt>
 0.3409411031D+03    9    2    0
 0.466356476757113D+02 0.000000000000000D+00 0.000000000000000D+00 0.466356476757113D+02
 0.466356476757113D+02 0.000000000000000D+00 0.000000000000000D+00 -.466356476757113D+02
 0.466356476757113D+02 0.179035865143678D+02 0.292259264040279D+02 0.316257877353588D+02
 0.466356476757113D+02 -.179035865143678D+02 -.292259264040279D+02 -.316257877353588D+02
 0.000000000000000D+00 0.000000000000000D+00 -.000000000000000D+00 0.000000000000000D+00
 0.594673409771443D+02 0.000000000000000D+00 0.000000000000000D+00 0.594673409771443D+02
 0.540211548762727D+02 0.000000000000000D+00 0.000000000000000D+00 -.540211548762727D+02
 0.442759870015285D+02 0.934568999750214D+01 0.295437075118905D+02 0.316257877353588D+02
 0.506654082584440D+02 -.270629462665330D+02 -.288858111100863D+02 -.316257877353588D+02
 0.185471005934444D+02 0.177172562690308D+02 -.657896401804177D+00 0.544618610087160D+01
0.285230301118D-01 0.000000000000D+00 0.000000000000D+00 0.414552719459D+00 0.000000000000D+00  5 -1 1 -11 11 21 0 0.33714084D-01 0.15268556D-02 0.11746932D+04 0.86995345D+04 0.86995345D+04 0.12156540D+01  1  2  2  1  5  1       -1 0.224412157314D+03
-.140186117765D-02 0.000000000000D+00 -.109535945916D-03 0.414552719459D+00 0.000000000000D+00  5 -1 1 -11 11 21 2 0.33714084D-01 0.15268556D-02 0.11746932D+04 0.86995345D+04 0.86995345D+04 0.12156540D+01  1  2  3  1  5  1       -1 -.188496015538D+02
0.137256476893D-02 0.000000000000D+00 0.000000000000D+00 0.414552719459D+00 0.000000000000D+00  5 -1 1 -11 11 21 2 0.33714084D-01 0.15268556D-02 0.11746932D+04 0.86995345D+04 0.86995345D+04 0.12156540D+01  1  2 15  1  5  1       -1 0.159589216955D+02
0.154628058109D-01 0.000000000000D+00 0.000000000000D+00 0.414552719459D+00 0.000000000000D+00  5 -1 1 -11 11 21 2 0.49798667D-01 0.15268556D-02 0.19491720D+04 0.90138685D+04 0.90138685D+04 0.12140335D+01  1  2 12  1  5  1       -1 0.930952008949D+02
-.161624452908D-01 0.000000000000D+00 0.000000000000D+00 0.414552719459D+00 0.000000000000D+00  5 -1 1 -11 11 21 2 0.33714084D-01 0.15268556D-02 0.11746932D+04 0.86995345D+04 0.86995345D+04 0.12156540D+01  1  2  4  1  5  1       -1 -.187922059958D+03
-.226901527217D-01 0.000000000000D+00 -.119019851955D-01 0.414552719459D+00 0.000000000000D+00  5 -1 1 -11 11 21 2 0.49052436D-01 0.15268556D-02 0.11746932D+04 0.86995345D+04 0.86995345D+04 0.12156540D+01  1  2  5  1  5  1       -1 -.287672880122D+03
0.260878253441D-01 0.000000000000D+00 0.111116113556D-01 0.414552719459D+00 0.000000000000D+00  5 -1 1 -11 11 21 2 0.33714084D-01 0.15268556D-02 0.11746932D+04 0.86995345D+04 0.86995345D+04 0.12156540D+01  1  2  6  1  5  1       -1 0.562008775951D+03
0.722606337871D-03 0.000000000000D+00 0.000000000000D+00 0.414552719459D+00 0.000000000000D+00  5 21 1 -11 11 1 2 0.49798667D-01 0.15268556D-02 0.19491720D+04 0.90138685D+04 0.90138685D+04 0.12140335D+01  1  2 12  3  5  1       -1 0.403565887264D+02
-.658773330100D-03 0.000000000000D+00 -.540441132403D-03 0.414552719459D+00 0.000000000000D+00  5 21 1 -11 11 1 2 0.49052436D-01 0.15268556D-02 0.11746932D+04 0.86995345D+04 0.86995345D+04 0.12156540D+01  1  2  5  3  5  1       -1 -.100445999880D+03
  </mgrwgt>
  </event>
  <event npLO=' -1 ' npNLO=' 0 '>
  5     66 0.12615437E+02 0.51932809E+02 0.75467711E-02 0.11752620E+00
       -1 -1    0    0    0  501 0.00000000E+00 0.00000000E+00 0.41320876E+01 0.41320876E+01 0.00000000E+00 0.0000E+00 0.9000E+01
        1 -1    0    0  501    0 0.00000000E+00 0.00000000E+00 -.51670101E+03 0.51670101E+03 0.00000000E+00 0.0000E+00 0.9000E+01
       23  2    1    2    0    0 0.00000000E+00 0.00000000E+00 -.51256892E+03 0.52083309E+03 0.92413285E+02 0.0000E+00 0.0000E+00
      -11  1    3    3    0    0 -.43124905E+02 0.16421030E+02 -.26967630E+03 0.27359589E+03 0.00000000E+00 0.0000E+00 0.9000E+01
       11  1    3    3    0    0 0.43124905E+02 -.16421030E+02 -.24289262E+03 0.24723720E+03 0.00000000E+00 0.0000E+00 0.9000E+01
#aMCatNLO 1  0  0  2  1 0.20238393D+02 0.00000000D+00  -5  5  0 0.00000000D+00 0.00000000D+00 0.00000000D+00 0.00000000D+00 0.00000000D+00
  <mgrwgt>
 0.6311422512D+03    9    2    0
 0.462066427245297D+02 0.000000000000000D+00 0.000000000000000D+00 0.462066427245297D+02
 0.462066427245297D+02 0.000000000000000D+00 0.000000000000000D+00 -.462066427245297D+02
 0.462066427245297D+02 -.431249053054443D+02 0.164210301189524D+02 -.237616163197274D+01
 0.462066427245297D+02 0.431249053054443D+02 -.164210301189524D+02 0.237616163197274D+01
 0.000000000000000D+00 0.000000000000000D+00 0.000000000000000D+00 -.000000000000000D+00
 0.533293029375853D+02 0.000000000000000D+00 0.000000000000000D+00 0.533293029375853D+02
 0.557968238590249D+02 0.000000000000000D+00 0.000000000000000D+00 -.557968238590249D+02
 0.511105092814735D+02 -.496629836438705D+02 0.118417089349036D+02 -.237616163197274D+01
 0.425546780467753D+02 0.371616351453273D+02 -.205977511609647D+02 0.237616163197274D+01
 0.154609394683614D+02 0.125013484985433D+02 0.875604222606105D+01 -.246752092143959D+01
0.254716339951D-01 0.000000000000D+00 0.000000000000D+00 0.423907657289D+00 0.000000000000D+00  5 -1 1 -11 11 21 0 0.63570579D-03 0.79492462D-01 0.21294077D+04 0.85402153D+04 0.85402153D+04 0.12165006D+01  1  2  2  2  5  2        1 0.356901573193D+03
-.141508776143D-02 0.000000000000D+00 -.978177813764D-04 0.423907657289D+00 0.000000000000D+00  5 -1 1 -11 11 21 2 0.63570579D-03 0.79492462D-01 0.21294077D+04 0.85402153D+04 0.85402153D+04 0.12165006D+01  1  2  3  2  5  2        1 -.321598759053D+02
0.129036396971D-02 0.000000000000D+00 0.000000000000D+00 0.423907657289D+00 0.000000000000D+00  5 -1 1 -11 11 21 2 0.63570579D-03 0.79492462D-01 0.21294077D+04 0.85402153D+04 0.85402153D+04 0.12165006D+01  1  2 15  2  5  2        1 0.267564510798D+02
0.156116524407D-01 0.000000000000D+00 0.000000000000D+00 0.423907657289D+00 0.000000000000D+00  5 -1 1 -11 11 21 2 0.63570579D-03 0.11078794D+00 0.29597025D+04 0.87731673D+04 0.87731673D+04 0.12152686D+01  1  2 12  2  5  2        1 0.204239121849D+03
-.159772140092D-01 0.000000000000D+00 0.000000000000D+00 0.423907657289D+00 0.000000000000D+00  5 -1 1 -11 11 21 2 0.63570579D-03 0.79492462D-01 0.21294077D+04 0.85402153D+04 0.85402153D+04 0.12165006D+01  1  2  4  2  5  2        1 -.331296870545D+03
-.380281809105D-01 0.000000000000D+00 -.136189986035D-01 0.423907657289D+00 0.000000000000D+00  5 -1 1 -11 11 21 2 0.63570579D-03 0.10774268D+00 0.21294077D+04 0.85402153D+04 0.85402153D+04 0.12165006D+01  1  2  5  2  5  2        1 -.775817322797D+03
0.408715318498D-01 0.000000000000D+00 0.130127255668D-01 0.423907657289D+00 0.000000000000D+00  5 -1 1 -11 11 21 2 0.63570579D-03 0.79492462D-01 0.21294077D+04 0.85402153D+04 0.85402153D+04 0.12165006D+01  1  2  6  2  5  2        1 0.122226851520D+04
0.649158134131D-03 0.000000000000D+00 0.000000000000D+00 0.423907657289D+00 0.000000000000D+00  5 -1 21 -11 11 -1 2 0.63570579D-03 0.11078794D+00 0.29597025D+04 0.87731673D+04 0.87731673D+04 0.12152686D+01  1  2 12  4  5  2        1 0.183422974640D+02
-.117259844982D-02 0.000000000000D+00 -.531611739624D-03 0.423907657289D+00 0.000000000000D+00  5 -1 21 -11 11 -1 2 0.63570579D-03 0.10774268D+00 0.21294077D+04 0.85402153D+04 0.85402153D+04 0.12165006D+01  1  2  5  4  5  2        1 -.580916382927D+02
  </mgrwgt>
  </event>
  <event npLO=' -1 ' npNLO=' 0 '>
  5     66 0.12615437E+02 0.85936336E+02 0.75467711E-02 0.11761018E+00
       -1 -1    0    0    0  501 0.00000000E+00 0.00000000E+00 0.54415053E+01 0.54415053E+01 0.00000000E+00 0.0000E+00 0.9000E+01
        1 -1    0    0  501    0 0.00000000E+00 0.00000000E+00 -.33929278E+03 0.33929278E+03 0.00000000E+00 0.0000E+00 0.9000E+01
       23  2    1    2    0    0 0.00000000E+00 0.00000000E+00 -.33385127E+03 0.34473428E+03 0.85936336E+02 0.0000E+00 0.0000E+00
      -11  1    3    3    0    0 0.15619095E+02 -.19838827E+01 -.32730427E+03 0.32768274E+03 0.00000000E+00 0.0000E+00 0.9000E+01
       11  1    3    3    0    0 -.15619095E+02 0.19838827E+01 -.65470015E+01 0.17051544E+02 0.00000000E+00 0.0000E+00 0.9000E+01
#aMCatNLO 1  0  0  1  2 0.96324940D+02 0.00000000D+00  -5  5  0 0.00000000D+00 0.00000000D+00 0.00000000D+00 0.00000000D+00 0.00000000D+00
  <mgrwgt>
 0.3973682127D+03    3    2    0
 0.429681678673864D+02 0.000000000000000D+00 0.000000000000000D+00 0.429681678673864D+02
 0.429681678673864D+02 0.000000000000000D+00 0.000000000000000D+00 -.429681678673864D+02
 0.429681678673864D+02 0.156190948224860D+02 -.198388269179138D+01 -.399796390212731D+02
 0.429681678673864D+02 -.156190948224860D+02 0.198388269179138D+01 0.399796390212731D+02
 0.000000000000000D+00 0.000000000000000D+00 -.000000000000000D+00 -.000000000000000D+00
 0.515565758057598D+02 0.000000000000000D+00 0.000000000000000D+00 0.515565758057598D+02
 0.112587699788393D+03 0.000000000000000D+00 0.000000000000000D+00 -.112587699788393D+03
 0.400758321785592D+02 -.447309462292793D+00 0.273874109358440D+01 -.399796390212731D+02
 0.531458132443147D+02 -.342141297088814D+02 0.744978237213124D+01 0.399796390212731D+02
 0.709226301712790D+02 0.346614391711742D+02 -.101885234657156D+02 -.610311239826334D+02
0.230600641043D-01 0.000000000000D+00 0.000000000000D+00 0.623273065952D-01 0.000000000000D+00  5 -1 1 -11 11 21 0 0.83715466D-03 0.52198889D-01 0.24789191D+03 0.73850538D+04 0.73850538D+04 0.12232234D+01  1  2  2  1  5  1       -1 0.378839329281D+03
0.288904843124D-03 0.000000000000D+00 -.885567180150D-04 0.623273065952D-01 0.000000000000D+00  5 -1 1 -11 11 21 2 0.83715466D-03 0.52198889D-01 0.24789191D+03 0.73850538D+04 0.73850538D+04 0.12232234D+01  1  2  3  1  5  1       -1 -.287016970754D+00
0.765453671815D-03 0.000000000000D+00 0.000000000000D+00 0.623273065952D-01 0.000000000000D+00  5 -1 1 -11 11 21 2 0.83715466D-03 0.52198889D-01 0.24789191D+03 0.73850538D+04 0.73850538D+04 0.12232234D+01  1  2 15  1  5  1       -1 0.188159003914D+02
  </mgrwgt>
  </event>
  <event npLO=' -1 ' npNLO=' 0 '>
  5     66 0.12615437E+02 0.89823305E+02 0.75467711E-02 0.11803528E+00
       -1 -1    0    0    0  501 0.00000000E+00 0.00000000E+00 0.46793140E+02 0.46793140E+02 0.00000000E+00 0.0000E+00 0.9000E+01
        1 -1    0    0  501    0 0.00000000E+00 0.00000000E+00 -.43105817E+02 0.43105817E+02 0.00000000E+00 0.0000E+00 0.9000E+01
       23  2    1    2    0    0 0.00000000E+00 0.00000000E+00 0.36873239E+01 0.89898957E+02 0.89823305E+02 0.0000E+00 0.0000E+00
      -11  1    3    3    0    0 0.41208934E+01 -.25824458E+02 0.38387044E+02 0.46448353E+02 0.00000000E+00 0.0000E+00 0.9000E+01
       11  1    3    3    0    0 -.41208934E+01 0.25824458E+02 -.34699720E+02 0.43450604E+02 0.00000000E+00 0.0000E+00 0.9000E+01
#aMCatNLO 1  0  0  1  1 0.92888446D+02 0.00000000D+00  -5  5  0 0.00000000D+00 0.00000000D+00 0.00000000D+00 0.00000000D+00 0.00000000D+00
  <mgrwgt>
 0.2639770983D+03    3    2    0
 0.449116524384838D+02 0.000000000000000D+00 0.000000000000000D+00 0.449116524384838D+02
 0.449116524384838D+02 0.000000000000000D+00 0.000000000000000D+00 -.449116524384838D+02
 0.449116524384838D+02 0.412089344235538D+01 -.258244578187910D+02 0.365126298745709D+02
 0.449116524384838D+02 -.412089344235538D+01 0.258244578187910D+02 -.365126298745709D+02
 0.000000000000000D+00 -.000000000000000D+00 -.000000000000000D+00 -.000000000000000D+00
 0.462433341013519D+02 0.000000000000000D+00 0.000000000000000D+00 0.462433341013519D+02
 0.119107611819950D+03 0.000000000000000D+00 0.000000000000000D+00 -.119107611819950D+03
 0.445189206261109D+02 0.108402744452589D+02 -.230488742308171D+02 0.365126298745709D+02
 0.464994835351902D+02 0.274729748460746D+01 0.286615105186918D+02 -.365126298745709D+02
 0.743325417600012D+02 -.135875719298664D+02 -.561263628787476D+01 -.728642777185985D+02
0.238613917520D-01 0.000000000000D+00 0.000000000000D+00 0.674940942912D+00 0.000000000000D+00  5 -1 1 -11 11 21 0 0.71989447D-02 0.66316641D-02 0.68388438D+03 0.80682261D+04 0.80682261D+04 0.12191163D+01  1  2  2  1  5  1       -1 0.266628344978D+03
-.854240341540D-03 0.000000000000D+00 -.916340271766D-04 0.674940942912D+00 0.000000000000D+00  5 -1 1 -11 11 21 2 0.71989447D-02 0.66316641D-02 0.68388438D+03 0.80682261D+04 0.80682261D+04 0.12191163D+01  1  2  3  1  5  1       -1 -.179423340616D+02
0.920741165160D-03 0.000000000000D+00 0.000000000000D+00 0.674940942912D+00 0.000000000000D+00  5 -1 1 -11 11 21 2 0.71989447D-02 0.66316641D-02 0.68388438D+03 0.80682261D+04 0.80682261D+04 0.12191163D+01  1  2 15  1  5  1       -1 0.152910873878D+02
  </mgrwgt>
  </event>
  <event npLO=' -1 ' npNLO=' 0 '>
  6     66 0.12615437E+02 0.91775896E+02 0.75467711E-02 0.11786356E+00
       21 -1    0    0  502  501 0.00000000E+00 0.00000000E+00 0.11001077E+02 0.11001077E+02 0.00000000E+00 0.0000E+00 0.9000E+01
        1 -1    0    0  501    0 0.00000000E+00 0.00000000E+00 -.22564566E+03 0.22564566E+03 0.00000000E+00 0.0000E+00 0.9000E+01
       23  2    1    2    0    0 0.45232000E+01 0.15343459E+01 -.18444528E+03 0.20607205E+03 0.91775896E+02 0.0000E+00 0.0000E+00
      -11  1    3    3    0    0 -.27305545E+02 0.12660516E+02 -.16378675E+03 0.16652922E+03 0.00000000E+00 0.0000E+00 0.9000E+01
       11  1    3    3    0    0 0.31828745E+02 -.11126170E+02 -.20658531E+02 0.39542832E+02 0.00000000E+00 0.0000E+00 0.9000E+01
        1  1    1    2  502    0 -.45232000E+01 -.15343459E+01 -.30199303E+02 0.30574686E+02 0.00000000E+00 0.0000E+00 0.9000E+01
#aMCatNLO 2  0  0  1  2 0.14243754D+02 0.00000000D+00  -5  5  0 0.00000000D+00 0.00000000D+00 0.00000000D+00 0.00000000D+00 0.00000000D+00
  <mgrwgt>
 0.3720456417D+02    2    2    0
 0.458879481274846D+02 0.000000000000000D+00 0.000000000000000D+00 0.458879481274846D+02
 0.458879481274846D+02 0.000000000000000D+00 0.000000000000000D+00 -.458879481274846D+02
 0.458879481274846D+02 -.295361975146207D+02 0.119038406248304D+02 -.330396034798644D+02
 0.458879481274846D+02 0.295361975146207D+02 -.119038406248304D+02 0.330396034798644D+02
 0.000000000000000D+00 -.000000000000000D+00 -.000000000000000D+00 -.000000000000000D+00
 0.467476222248918D+02 0.000000000000000D+00 0.000000000000000D+00 0.467476222248918D+02
 0.531009956151553D+02 0.000000000000000D+00 0.000000000000000D+00 -.531009956151553D+02
 0.446933644563647D+02 -.273055446376505D+02 0.126605158016586D+02 -.330396034798644D+02
 0.472067372252326D+02 0.318287446392878D+02 -.111261698725346D+02 0.330396034798644D+02
 0.794851615844986D+01 -.452320000163730D+01 -.153434592912402D+01 -.635337339026342D+01
-.305625609138D-03 0.000000000000D+00 0.000000000000D+00 0.827041300883D+00 0.000000000000D+00  5 21 1 -11 11 1 2 0.19585103D-02 0.29999195D-01 0.11762013D+04 0.84456287D+04 0.84456287D+04 0.12170116D+01  1  2 13  3  5  1       -1 -.832305989488D+02
0.425146567383D-03 0.000000000000D+00 0.000000000000D+00 0.827041300883D+00 0.111223218701D-02  5 21 1 -11 11 1 2 0.16924734D-02 0.34714717D-01 0.11762013D+04 0.84456287D+04 0.84456287D+04 0.12170116D+01  1  2  1  3  5  1       -1 0.120435163115D+03
  </mgrwgt>
  </event>
  <event npLO=' -1 ' npNLO=' 0 '>
  5     66 0.12615437E+02 0.56186393E+02 0.75467711E-02 0.11799242E+00
       -1 -1    0    0    0  501 0.00000000E+00 0.00000000E+00 0.17100046E+02 0.17100046E+02 0.00000000E+00 0.0000E+00 0.9000E+01
        1 -1    0    0  501    0 0.00000000E+00 0.00000000E+00 -.12039783E+03 0.12039783E+03 0.00000000E+00 0.0000E+00 0.9000E+01
       23  2    1    2    0    0 0.00000000E+00 0.00000000E+00 -.10329779E+03 0.13749788E+03 0.90748191E+02 0.0000E+00 0.0000E+00
      -11  1    3    3    0    0 0.36573522E+02 0.81420202E+01 -.90423141E+02 0.97878800E+02 0.00000000E+00 0.0000E+00 0.9000E+01
       11  1    3    3    0    0 -.36573522E+02 -.81420202E+01 -.12874646E+02 0.39619080E+02 0.00000000E+00 0.0000E+00 0.9000E+01
#aMCatNLO 1  0  0  1  2 0.95495745D+01 0.00000000D+00  -5  5  0 0.00000000D+00 0.00000000D+00 0.00000000D+00 0.00000000D+00 0.00000000D+00
  <mgrwgt>
 0.3330486810D+03   11    2    0
 0.453740955181539D+02 0.000000000000000D+00 0.000000000000000D+00 0.453740955181539D+02
 0.453740955181539D+02 0.000000000000000D+00 0.000000000000000D+00 -.453740955181539D+02
 0.453740955181539D+02 0.365735220176989D+02 0.814202017516037D+01 -.255908878075523D+02
 0.453740955181539D+02 -.365735220176989D+02 -.814202017516037D+01 0.255908878075523D+02
 0.000000000000000D+00 -.000000000000000D+00 0.000000000000000D+00 0.000000000000000D+00
 0.872688134034166D+02 0.000000000000000D+00 0.000000000000000D+00 0.872688134034166D+02
 0.461531323718410D+02 0.000000000000000D+00 0.000000000000000D+00 -.461531323718410D+02
 0.477216759531298D+02 0.399997324027165D+02 0.474196422465135D+01 -.255908878075523D+02
 0.435157528771226D+02 -.333021025226848D+02 -.113884668525954D+02 0.255908878075523D+02
 0.421845169450051D+02 -.669762988003172D+01 0.664650262794410D+01 0.411156810315756D+02
0.208302423225D-01 0.000000000000D+00 0.000000000000D+00 0.789322484214D+00 0.000000000000D+00  5 -1 1 -11 11 21 0 0.26307764D-02 0.18522744D-01 0.14039150D+04 0.82352342D+04 0.82352342D+04 0.12181716D+01  1  2  2  1  5  1       -1 0.256479088597D+03
-.110567372909D-02 0.000000000000D+00 -.799936152472D-04 0.789322484214D+00 0.000000000000D+00  5 -1 1 -11 11 21 2 0.26307764D-02 0.18522744D-01 0.14039150D+04 0.82352342D+04 0.82352342D+04 0.12181716D+01  1  2  3  1  5  1       -1 -.227881419619D+02
0.981984207652D-03 0.000000000000D+00 0.000000000000D+00 0.789322484214D+00 0.000000000000D+00  5 -1 1 -11 11 21 2 0.26307764D-02 0.18522744D-01 0.14039150D+04 0.82352342D+04 0.82352342D+04 0.12181716D+01  1  2 15  1  5  1       -1 0.179423390867D+02
0.139855672153D+00 0.000000000000D+00 0.000000000000D+00 0.789322484214D+00 0.000000000000D+00  5 -1 1 -11 11 21 2 0.51466925D-02 0.18522744D-01 0.18024773D+04 0.83242684D+04 0.83242684D+04 0.12176767D+01  1  2 12  1  5  1       -1 0.984826345392D+03
-.115672120627D+00 0.000000000000D+00 0.000000000000D+00 0.789322484214D+00 0.000000000000D+00  5 -1 1 -11 11 21 2 0.26307764D-02 0.18522744D-01 0.14039150D+04 0.82352342D+04 0.82352342D+04 0.12181716D+01  1  2  4  1  5  1       -1 -.211350487614D+04
-.136383785451D+00 0.000000000000D+00 -.661689907853D-02 0.789322484214D+00 0.000000000000D+00  5 -1 1 -11 11 21 2 0.51351545D-02 0.18522744D-01 0.14039150D+04 0.82352342D+04 0.82352342D+04 0.12181716D+01  1  2  5  1  5  1       -1 -.104627566880D+04
0.115292959349D+00 0.000000000000D+00 0.537029044535D-02 0.789322484214D+00 0.000000000000D+00  5 -1 1 -11 11 21 2 0.26307764D-02 0.18522744D-01 0.14039150D+04 0.82352342D+04 0.82352342D+04 0.12181716D+01  1  2  6  1  5  1       -1 0.228017262573D+04
0.883123890280D-06 0.000000000000D+00 0.000000000000D+00 0.789322484214D+00 0.872120620975D-01  5 -1 1 -11 11 21 2 0.50598195D-02 0.18840764D-01 0.18024773D+04 0.83242684D+04 0.83242684D+04 0.12176767D+01  1  2 11  1  5  1       -1 0.623674340590D-02
0.101684077096D-01 0.000000000000D+00 0.000000000000D+00 0.789322484214D+00 0.000000000000D+00  5 21 1 -11 11 1 2 0.51466925D-02 0.18522744D-01 0.18024773D+04 0.83242684D+04 0.83242684D+04 0.12176767D+01  1  2 12  3  5  1       -1 0.112804813871D+04
-.949590023898D-02 0.000000000000D+00 -.479565641429D-03 0.789322484214D+00 0.000000000000D+00  5 21 1 -11 11 1 2 0.51351545D-02 0.18522744D-01 0.14039150D+04 0.82352342D+04 0.82352342D+04 0.12181716D+01  1  2  5  3  5  1       -1 -.115186470914D+04
0.654583668670D-07 0.000000000000D+00 0.000000000000D+00 0.789322484214D+00 0.643994197131D-02  5 21 1 -11 11 1 2 0.50598195D-02 0.18840764D-01 0.18024773D+04 0.83242684D+04 0.83242684D+04 0.12176767D+01  1  2 11  3  5  1       -1 0.730274113673D-02
  </mgrwgt>
  </event>
  <event npLO=' -1 ' npNLO=' 0 '>
  5     66 0.12615437E+02 0.49489971E+02 0.75467711E-02 0.11770378E+00
       -1 -1    0    0    0  501 0.00000000E+00 0.00000000E+00 0.23602685E+02 0.23602685E+02 0.00000000E+00 0.0000E+00 0.9000E+01
        1 -1    0    0  501    0 0.00000000E+00 0.00000000E+00 -.87350280E+02 0.87350280E+02 0.00000000E+00 0.0000E+00 0.9000E+01
       23  2    1    2    0    0 0.00000000E+00 0.00000000E+00 -.63747596E+02 0.11095297E+03 0.90811919E+02 0.0000E+00 0.0000E+00
      -11  1    3    3    0    0 0.25364867E+02 -.37408270E+02 -.26555724E+02 0.52421004E+02 0.00000000E+00 0.0000E+00 0.9000E+01
       11  1    3    3    0    0 -.25364867E+02 0.37408270E+02 -.37191871E+02 0.58531961E+02 0.00000000E+00 0.0000E+00 0.9000E+01
#aMCatNLO 1  0  0  2  1 0.20154765D+02 0.00000000D+00  -5  5  0 0.00000000D+00 0.00000000D+00 0.00000000D+00 0.00000000D+00 0.00000000D+00
  <mgrwgt>
 0.3820087358D+03    9    2    0
 0.454059594084773D+02 0.000000000000000D+00 0.000000000000000D+00 0.454059594084773D+02
 0.454059594084773D+02 0.000000000000000D+00 0.000000000000000D+00 -.454059594084773D+02
 0.454059594084773D+02 0.253648674932586D+02 -.374082703455915D+02 0.435269532644521D+01
 0.454059594084773D+02 -.253648674932586D+02 0.374082703455915D+02 -.435269532644521D+01
 0.000000000000000D+00 0.000000000000000D+00 -.000000000000000D+00 -.000000000000000D+00
 0.493246962164833D+02 0.000000000000000D+00 0.000000000000000D+00 0.493246962164833D+02
 0.761140857880591D+02 0.000000000000000D+00 0.000000000000000D+00 -.761140857880591D+02
 0.372712373972657D+02 0.223397143547228D+02 -.295150189406660D+02 0.435269532644521D+01
 0.554593394810244D+02 -.290555220787287D+02 0.470379529295138D+02 -.435269532644521D+01
 0.327082051262522D+02 0.671580772400593D+01 -.175229339888478D+02 -.267893895715758D+02
0.235392351808D-01 0.000000000000D+00 0.000000000000D+00 0.778317164325D+00 0.000000000000D+00  5 -1 1 -11 11 21 0 0.36311823D-02 0.13438505D-01 0.20427552D+04 0.82468046D+04 0.82468046D+04 0.12181069D+01  1  2  2  2  5  2        1 0.276804118509D+03
-.130770140892D-02 0.000000000000D+00 -.903968611174D-04 0.778317164325D+00 0.000000000000D+00  5 -1 1 -11 11 21 2 0.36311823D-02 0.13438505D-01 0.20427552D+04 0.82468046D+04 0.82468046D+04 0.12181069D+01  1  2  3  2  5  2        1 -.250181692798D+02
0.126692191786D-02 0.000000000000D+00 0.000000000000D+00 0.778317164325D+00 0.000000000000D+00  5 -1 1 -11 11 21 2 0.36311823D-02 0.13438505D-01 0.20427552D+04 0.82468046D+04 0.82468046D+04 0.12181069D+01  1  2 15  2  5  2        1 0.221055266258D+02
0.331051816998D-01 0.000000000000D+00 0.000000000000D+00 0.778317164325D+00 0.000000000000D+00  5 -1 1 -11 11 21 2 0.36311823D-02 0.24471167D-01 0.30841512D+04 0.85989599D+04 0.85989599D+04 0.12161864D+01  1  2 12  2  5  2        1 0.270223565299D+03
-.310233327687D-01 0.000000000000D+00 0.000000000000D+00 0.778317164325D+00 0.000000000000D+00  5 -1 1 -11 11 21 2 0.36311823D-02 0.13438505D-01 0.20427552D+04 0.82468046D+04 0.82468046D+04 0.12181069D+01  1  2  4  2  5  2        1 -.541301795217D+03
-.351709224434D-01 0.000000000000D+00 -.894533704414D-02 0.778317164325D+00 0.000000000000D+00  5 -1 1 -11 11 21 2 0.36311823D-02 0.24226822D-01 0.20427552D+04 0.82468046D+04 0.82468046D+04 0.12181069D+01  1  2  5  2  5  2        1 -.394025409327D+03
0.354608097749D-01 0.000000000000D+00 0.758887557561D-02 0.778317164325D+00 0.000000000000D+00  5 -1 1 -11 11 21 2 0.36311823D-02 0.13438505D-01 0.20427552D+04 0.82468046D+04 0.82468046D+04 0.12181069D+01  1  2  6  2  5  2        1 0.803512751005D+03
0.217086030970D-02 0.000000000000D+00 0.000000000000D+00 0.778317164325D+00 0.000000000000D+00  5 -1 21 -11 11 -1 2 0.36311823D-02 0.24471167D-01 0.30841512D+04 0.85989599D+04 0.85989599D+04 0.12161864D+01  1  2 12  4  5  2        1 0.136252371345D+03
-.179583169314D-02 0.000000000000D+00 -.577986275824D-03 0.778317164325D+00 0.000000000000D+00  5 -1 21 -11 11 -1 2 0.36311823D-02 0.24226822D-01 0.20427552D+04 0.82468046D+04 0.82468046D+04 0.12181069D+01  1  2  5  4  5  2        1 -.166544223209D+03
  </mgrwgt>
  </event>
  <event npLO=' -1 ' npNLO=' 0 '>
  5     66 0.12615437E+02 0.48597402E+02 0.75467711E-02 0.11687878E+00
       -3 -1    0    0    0  501 0.00000000E+00 0.00000000E+00 0.15840322E+02 0.15840322E+02 0.00000000E+00 0.0000E+00 0.9000E+01
        3 -1    0    0  501    0 0.00000000E+00 0.00000000E+00 -.13650348E+03 0.13650348E+03 0.00000000E+00 0.0000E+00 0.9000E+01
       23  2    1    2    0    0 0.00000000E+00 0.00000000E+00 -.12066316E+03 0.15234381E+03 0.93000196E+02 0.0000E+00 0.0000E+00
      -11  1    3    3    0    0 0.99570922E+01 -.40352003E+01 0.13779321E+02 0.17472727E+02 0.00000000E+00 0.0000E+00 0.9000E+01
       11  1    3    3    0    0 -.99570922E+01 0.40352003E+01 -.13444248E+03 0.13487108E+03 0.00000000E+00 0.0000E+00 0.9000E+01
#aMCatNLO 1  0  0  1  2 0.42432503D+02 0.00000000D+00  -5  5  0 0.00000000D+00 0.00000000D+00 0.00000000D+00 0.00000000D+00 0.00000000D+00
  <mgrwgt>
 0.1801452269D+03    6    2    0
 0.465000977904448D+02 0.000000000000000D+00 0.000000000000000D+00 0.465000977904448D+02
 0.465000977904448D+02 0.000000000000000D+00 0.000000000000000D+00 -.465000977904448D+02
 0.465000977904448D+02 0.995709219471593D+01 -.403520033446517D+01 0.452419337319658D+02
 0.465000977904448D+02 -.995709219471593D+01 0.403520033446517D+01 -.452419337319658D+02
 0.000000000000000D+00 -.000000000000000D+00 -.000000000000000D+00 -.000000000000000D+00
 0.606977691107139D+02 0.000000000000000D+00 0.000000000000000D+00 0.606977691107139D+02
 0.649987147086516D+02 0.000000000000000D+00 0.000000000000000D+00 -.649987147086516D+02
 0.509745932637938D+02 0.234594667503390D+02 0.110905833541856D+01 0.452419337319658D+02
 0.462045144855809D+02 0.288452222279681D+01 0.892771653822305D+01 -.452419337319658D+02
 0.285173760699908D+02 -.263439889731358D+02 -.100367748736416D+02 -.430094559793776D+01
0.286290033121D-01 0.000000000000D+00 0.000000000000D+00 0.675232619086D+00 0.000000000000D+00  5 -3 3 -11 11 21 0 0.24369726D-02 0.21000536D-01 0.11542653D+03 0.86490364D+04 0.86490364D+04 0.12159204D+01  1  2  2  1  5  1       -3 0.165072720313D+03
0.256068287056D-02 0.000000000000D+00 -.109942910908D-03 0.675232619086D+00 0.000000000000D+00  5 -3 3 -11 11 21 2 0.24369726D-02 0.21000536D-01 0.11542653D+03 0.86490364D+04 0.86490364D+04 0.12159204D+01  1  2  3  1  5  1       -3 0.177834460019D+02
0.925608602599D-03 0.000000000000D+00 0.000000000000D+00 0.675232619086D+00 0.000000000000D+00  5 -3 3 -11 11 21 2 0.24369726D-02 0.21000536D-01 0.11542653D+03 0.86490364D+04 0.86490364D+04 0.12159204D+01  1  2 15  1  5  1       -3 0.789054103764D+01
0.600507011081D-02 0.000000000000D+00 0.000000000000D+00 0.675232619086D+00 0.000000000000D+00  5 -3 3 -11 11 21 2 0.44465216D-02 0.21000536D-01 0.93205005D+03 0.94437790D+04 0.94437790D+04 0.12119167D+01  1  2 12  1  5  1       -3 0.212668870571D+02
-.667793619484D-02 0.000000000000D+00 0.000000000000D+00 0.675232619086D+00 0.000000000000D+00  5 -3 3 -11 11 21 2 0.24369726D-02 0.21000536D-01 0.11542653D+03 0.86490364D+04 0.86490364D+04 0.12159204D+01  1  2  4  1  5  1       -3 -.569274415171D+02
0.394933707113D-03 0.000000000000D+00 0.000000000000D+00 0.675232619086D+00 0.000000000000D+00  5 21 3 -11 11 3 2 0.44465216D-02 0.21000536D-01 0.93205005D+03 0.94437790D+04 0.94437790D+04 0.12119167D+01  1  2 12  3  5  1       -3 0.250590740133D+02
  </mgrwgt>
  </event>
  <event npLO=' -1 ' npNLO=' 0 '>
  6     66 -.12615437E+02 0.91898338E+02 0.75467711E-02 0.11785998E+00
       -3 -1    0    0    0  501 0.00000000E+00 0.00000000E+00 0.21179893E+03 0.21179893E+03 0.00000000E+00 0.0000E+00 0.9000E+01
        3 -1    0    0  502    0 0.00000000E+00 0.00000000E+00 -.10668203E+02 0.10668203E+02 0.00000000E+00 0.0000E+00 0.9000E+01
       23  2    1    2    0    0 0.17038320E+01 0.90429008E+00 0.18880425E+03 0.20999065E+03 0.91898338E+02 0.0000E+00 0.0000E+00
      -13  1    3    3    0    0 0.26381159E+02 -.14914762E+02 0.17497464E+03 0.17757968E+03 0.00000000E+00 0.0000E+00 0.9000E+01
       13  1    3    3    0    0 -.24677327E+02 0.15819052E+02 0.13829612E+02 0.32410971E+02 0.00000000E+00 0.0000E+00 0.9000E+01
       21  1    1    2  502  501 -.17038320E+01 -.90429008E+00 0.12326469E+02 0.12476483E+02 0.00000000E+00 0.0000E+00 0.9000E+01
#aMCatNLO 2  0  0  2  1 0.58912993D+01 0.00000000D+00  -5  5  0 0.00000000D+00 0.00000000D+00 0.00000000D+00 0.00000000D+00 0.00000000D+00
  <mgrwgt>
 -.9568471972D+02    3    2    0
 0.459491689557145D+02 0.000000000000000D+00 0.000000000000000D+00 0.459491689557145D+02
 0.459491689557145D+02 0.000000000000000D+00 0.000000000000000D+00 -.459491689557145D+02
 0.459491689557145D+02 0.255262581937061D+02 -.153684910696505D+02 0.349792188676522D+02
 0.459491689557145D+02 -.255262581937061D+02 0.153684910696505D+02 -.349792188676522D+02
 0.000000000000000D+00 -.000000000000000D+00 -.000000000000000D+00 0.000000000000000D+00
 0.488177166723220D+02 0.000000000000000D+00 0.000000000000000D+00 0.488177166723220D+02
 0.462847121995373D+02 0.000000000000000D+00 0.000000000000000D+00 -.462847121995373D+02
 0.462813291936842D+02 0.263811592093646D+02 -.149147617518082D+02 0.349792188676522D+02
 0.456372505100377D+02 -.246773272587895D+02 0.158190518327562D+02 -.349792188676522D+02
 0.318384916813742D+01 -.170383195057516D+01 -.904290080947983D+00 0.253300447278478D+01
-.213454187815D-01 0.000000000000D+00 0.000000000000D+00 0.122559136633D+01 0.000000000000D+00  5 -3 3 -13 13 21 2 0.30669775D-01 0.17437239D-02 0.94699724D+03 0.84490253D+04 0.84490253D+04 0.12169931D+01  1  2 13  2  5  2        3 -.146789438010D+03
-.218527730311D-02 0.000000000000D+00 0.000000000000D+00 0.122559136633D+01 0.000000000000D+00  5 -3 3 -13 13 21 2 0.30669775D-01 0.16293636D-02 0.88778038D+03 0.84453045D+04 0.84453045D+04 0.12170133D+01  1  2  8  2  5  2        3 -.165449376846D+02
0.101343406353D-01 0.000000000000D+00 0.000000000000D+00 0.122559136633D+01 0.260533637145D+01  5 -3 3 -13 13 21 2 0.32584450D-01 0.16412620D-02 0.94699724D+03 0.84490253D+04 0.84490253D+04 0.12169931D+01  1  2  1  2  5  2        3 0.676496559728D+02
  </mgrwgt>
  </event>
  <event npLO=' -1 ' npNLO=' 0 '>
  5     66 0.12615437E+02 0.89110007E+02 0.75467711E-02 0.10892321E+00
       -3 -1    0    0    0  501 0.00000000E+00 0.00000000E+00 0.14134925E+03 0.14134925E+03 0.00000000E+00 0.0000E+00 0.9000E+01
        3 -1    0    0  501    0 0.00000000E+00 0.00000000E+00 -.14044279E+02 0.14044279E+02 0.00000000E+00 0.0000E+00 0.9000E+01
       23  2    1    2    0    0 0.00000000E+00 0.00000000E+00 0.12730497E+03 0.15539353E+03 0.89110007E+02 0.0000E+00 0.0000E+00
      -13  1    3    3    0    0 -.94020704E+01 -.31647440E+02 0.11582765E+03 0.12044087E+03 0.00000000E+00 0.0000E+00 0.9000E+01
       13  1    3    3    0    0 0.94020704E+01 0.31647440E+02 0.11477322E+02 0.34952658E+02 0.00000000E+00 0.0000E+00 0.9000E+01
#aMCatNLO 1  0  0  2  1 0.16725609D+03 0.00000000D+00  -5  5  0 0.00000000D+00 0.00000000D+00 0.00000000D+00 0.00000000D+00 0.00000000D+00
  <mgrwgt>
 0.2054380327D+03    5    2    0
 0.445550035905111D+02 0.000000000000000D+00 0.000000000000000D+00 0.445550035905111D+02
 0.445550035905111D+02 0.000000000000000D+00 0.000000000000000D+00 -.445550035905111D+02
 0.445550035905111D+02 -.940207043079923D+01 -.316474395179456D+02 0.299197090313848D+02
 0.445550035905111D+02 0.940207043079923D+01 0.316474395179456D+02 -.299197090313848D+02
 0.000000000000000D+00 0.000000000000000D+00 -.000000000000000D+00 -.000000000000000D+00
 0.122108642709787D+03 0.000000000000000D+00 0.000000000000000D+00 0.122108642709787D+03
 0.179394060893913D+03 0.000000000000000D+00 0.000000000000000D+00 -.179394060893913D+03
 0.572747668643041D+02 -.485374824000001D+02 0.541504691644881D+01 0.299197090313848D+02
 0.101202841099738D+03 -.466158629713669D+02 0.846982135441525D+02 -.299197090313848D+02
 0.143025095639657D+03 0.951533453713671D+02 -.901132604606013D+02 -.572854181841265D+02
0.298963867846D-01 0.000000000000D+00 0.000000000000D+00 0.324357159339D+00 0.000000000000D+00  5 -3 3 -13 13 21 0 0.21746039D-01 0.21606583D-02 0.10899594D+04 0.79405934D+04 0.79405934D+04 0.12198532D+01  1  2  2  2  5  2        3 0.190323822615D+03
-.147943270004D-02 0.000000000000D+00 -.114809997152D-03 0.324357159339D+00 0.000000000000D+00  5 -3 3 -13 13 21 2 0.21746039D-01 0.21606583D-02 0.10899594D+04 0.79405934D+04 0.79405934D+04 0.12198532D+01  1  2  3  2  5  2        3 -.161745399400D+02
0.150664051284D-02 0.000000000000D+00 0.000000000000D+00 0.324357159339D+00 0.000000000000D+00  5 -3 3 -13 13 21 2 0.21746039D-01 0.21606583D-02 0.10899594D+04 0.79405934D+04 0.79405934D+04 0.12198532D+01  1  2 15  2  5  2        3 0.142724725086D+02
0.784572359932D-01 0.000000000000D+00 -.261236335914D-01 0.324357159339D+00 0.000000000000D+00  5 -3 3 -13 13 21 2 0.21746039D-01 0.23404551D-01 0.10899594D+04 0.79405934D+04 0.79405934D+04 0.12198532D+01  1  2  5  2  5  2        3 0.620254519886D+01
0.175239491465D-01 0.000000000000D+00 -.733922161884D-02 0.324357159339D+00 0.000000000000D+00  5 -3 21 -13 13 -3 2 0.21746039D-01 0.23404551D-01 0.10899594D+04 0.79405934D+04 0.79405934D+04 0.12198532D+01  1  2  5  4  5  2        3 0.108137323166D+02
  </mgrwgt>
  </event>
  <event npLO=' -1 ' npNLO=' 0 '>
  5     66 0.12615437E+02 0.46142512E+02 0.75467711E-02 0.12159685E+00
       -3 -1    0    0    0  501 0.00000000E+00 0.00000000E+00 0.28220077E+02 0.28220077E+02 0.00000000E+00 0.0000E+00 0.9000E+01
        3 -1    0    0  501    0 0.00000000E+00 0.00000000E+00 -.49712648E+02 0.49712648E+02 0.00000000E+00 0.0000E+00 0.9000E+01
       23  2    1    2    0    0 0.00000000E+00 0.00000000E+00 -.21492571E+02 0.77932726E+02 0.74910474E+02 0.0000E+00 0.0000E+00
      -13  1    3    3    0    0 -.92094531E+01 0.25043453E+02 -.38091849E+02 0.46507822E+02 0.00000000E+00 0.0000E+00 0.9000E+01
       13  1    3    3    0    0 0.92094531E+01 -.25043453E+02 0.16599278E+02 0.31424904E+02 0.00000000E+00 0.0000E+00 0.9000E+01
#aMCatNLO 1  0  0  1  2 0.16731894D+02 0.00000000D+00  -5  5  0 0.00000000D+00 0.00000000D+00 0.00000000D+00 0.00000000D+00 0.00000000D+00
  <mgrwgt>
 0.4401227812D+03    6    2    0
 0.374552371336883D+02 0.000000000000000D+00 0.000000000000000D+00 0.374552371336883D+02
 0.374552371336883D+02 0.000000000000000D+00 0.000000000000000D+00 -.374552371336883D+02
 0.374552371336883D+02 -.920945314865927D+01 0.250434528451600D+02 -.262850952259208D+02
 0.374552371336883D+02 0.920945314865927D+01 -.250434528451600D+02 0.262850952259208D+02
 0.000000000000000D+00 -.000000000000000D+00 0.000000000000000D+00 -.000000000000000D+00
 0.378480166413599D+02 0.000000000000000D+00 0.000000000000000D+00 0.378480166413599D+02
 0.465639493152815D+02 0.000000000000000D+00 0.000000000000000D+00 -.465639493152815D+02
 0.362407512519233D+02 -.884443753682005D+01 0.233294180151444D+02 -.262850952259208D+02
 0.387544909851520D+02 0.958691929229580D+01 -.268159526954668D+02 0.262850952259208D+02
 0.941672371956614D+01 -.742481755475753D+00 0.348653468032237D+01 -.871593267392162D+01
0.248412623237D-01 0.000000000000D+00 0.000000000000D+00 0.546747987266D-02 0.000000000000D+00  5 -3 3 -13 13 21 0 0.43415504D-02 0.76480998D-02 0.71198856D+03 0.56115792D+04 0.56115792D+04 0.12362445D+01  1  2  2  1  5  1       -3 0.306130837697D+03
-.118710525815D-02 0.000000000000D+00 -.953969881777D-04 0.546747987266D-02 0.000000000000D+00  5 -3 3 -13 13 21 2 0.43415504D-02 0.76480998D-02 0.71198856D+03 0.56115792D+04 0.56115792D+04 0.12362445D+01  1  2  3  1  5  1       -3 -.260672651490D+02
0.127933473581D-02 0.000000000000D+00 0.000000000000D+00 0.546747987266D-02 0.000000000000D+00  5 -3 3 -13 13 21 2 0.43415504D-02 0.76480998D-02 0.71198856D+03 0.56115792D+04 0.56115792D+04 0.12362445D+01  1  2 15  1  5  1       -3 0.240949694906D+02
0.813318964901D-02 0.000000000000D+00 0.000000000000D+00 0.546747987266D-02 0.000000000000D+00  5 -3 3 -13 13 21 2 0.54539691D-02 0.76480998D-02 0.81203684D+03 0.56242864D+04 0.56242864D+04 0.12361355D+01  1  2 12  1  5  1       -3 0.109181309422D+03
-.181591582001D-02 0.000000000000D+00 0.000000000000D+00 0.546747987266D-02 0.000000000000D+00  5 -3 3 -13 13 21 2 0.43415504D-02 0.76480998D-02 0.71198856D+03 0.56115792D+04 0.56115792D+04 0.12362445D+01  1  2  4  1  5  1       -3 -.342009288544D+02
0.257135878646D-03 0.000000000000D+00 0.000000000000D+00 0.546747987266D-02 0.000000000000D+00  5 21 3 -13 13 3 2 0.54539691D-02 0.76480998D-02 0.81203684D+03 0.56242864D+04 0.56242864D+04 0.12361355D+01  1  2 12  3  5  1       -3 0.609838586008D+02
  </mgrwgt>
  </event>
  <event npLO=' -1 ' npNLO=' 0 '>
  5     66 0.12615437E+02 0.58006422E+02 0.75467711E-02 0.11754734E+00
       -1 -1    0    0    0  501 0.00000000E+00 0.00000000E+00 0.61269065E+01 0.61269065E+01 0.00000000E+00 0.0000E+00 0.9000E+01
        1 -1    0    0  501    0 0.00000000E+00 0.00000000E+00 -.35092535E+03 0.35092535E+03 0.00000000E+00 0.0000E+00 0.9000E+01
       23  2    1    2    0    0 0.00000000E+00 0.00000000E+00 -.34479844E+03 0.35705226E+03 0.92738057E+02 0.0000E+00 0.0000E+00
      -11  1    3    3    0    0 0.42527353E+01 -.29707356E+02 -.36305714E+02 0.47103265E+02 0.00000000E+00 0.0000E+00 0.9000E+01
       11  1    3    3    0    0 -.42527353E+01 0.29707356E+02 -.30849273E+03 0.30994899E+03 0.00000000E+00 0.0000E+00 0.9000E+01
#aMCatNLO 1  0  0  2  1 0.18697576D+02 0.00000000D+00  -5  5  0 0.00000000D+00 0.00000000D+00 0.00000000D+00 0.00000000D+00 0.00000000D+00
  <mgrwgt>
 0.3230008761D+03    6    2    0
 0.463690284646526D+02 0.000000000000000D+00 0.000000000000000D+00 0.463690284646526D+02
 0.463690284646526D+02 0.000000000000000D+00 0.000000000000000D+00 -.463690284646526D+02
 0.463690284646526D+02 0.425273529179944D+01 -.297073560811554D+02 0.353479000502305D+02
 0.463690284646526D+02 -.425273529179944D+01 0.297073560811554D+02 -.353479000502305D+02
 0.000000000000000D+00 -.000000000000000D+00 0.000000000000000D+00 0.000000000000000D+00
 0.539311691724932D+02 0.000000000000000D+00 0.000000000000000D+00 0.539311691724932D+02
 0.520832372341404D+02 0.000000000000000D+00 0.000000000000000D+00 -.520832372341404D+02
 0.491415455973064D+02 0.981959544923268D+01 -.326954585675820D+02 0.353479000502305D+02
 0.444117147031915D+02 0.103844536716525D+01 0.268672290371747D+02 -.353479000502305D+02
 0.124611461061357D+02 -.108580408163979D+02 0.582822953040735D+01 0.184793193835282D+01
0.270313011839D-01 0.000000000000D+00 0.000000000000D+00 0.658655488703D+00 0.000000000000D+00  5 -1 1 -11 11 21 0 0.94260100D-03 0.53988515D-01 0.90061276D+03 0.86003472D+04 0.86003472D+04 0.12161790D+01  1  2  2  2  5  2        1 0.365866300903D+03
-.115608442771D-02 0.000000000000D+00 -.103807314051D-03 0.658655488703D+00 0.000000000000D+00  5 -1 1 -11 11 21 2 0.94260100D-03 0.53988515D-01 0.90061276D+03 0.86003472D+04 0.86003472D+04 0.12161790D+01  1  2  3  2  5  2        1 -.278334094365D+02
0.926453822304D-03 0.000000000000D+00 0.000000000000D+00 0.658655488703D+00 0.000000000000D+00  5 -1 1 -11 11 21 2 0.94260100D-03 0.53988515D-01 0.90061276D+03 0.86003472D+04 0.86003472D+04 0.12161790D+01  1  2 15  2  5  2        1 0.185470235971D+02
0.151153852231D-01 0.000000000000D+00 0.000000000000D+00 0.658655488703D+00 0.000000000000D+00  5 -1 1 -11 11 21 2 0.94260100D-03 0.70531512D-01 0.13450140D+04 0.87522125D+04 0.87522125D+04 0.12153779D+01  1  2 12  2  5  2        1 0.214268717447D+03
-.136993599891D-01 0.000000000000D+00 0.000000000000D+00 0.658655488703D+00 0.000000000000D+00  5 -1 1 -11 11 21 2 0.94260100D-03 0.53988515D-01 0.90061276D+03 0.86003472D+04 0.86003472D+04 0.12161790D+01  1  2  4  2  5  2        1 -.274252582122D+03
0.537293387445D-03 0.000000000000D+00 0.000000000000D+00 0.658655488703D+00 0.000000000000D+00  5 -1 21 -11 11 -1 2 0.94260100D-03 0.70531512D-01 0.13450140D+04 0.87522125D+04 0.87522125D+04 0.12153779D+01  1  2 12  4  5  2        1 0.264048257578D+02
  </mgrwgt>
  </event>
  <event npLO=' -1 ' npNLO=' 0 '>
  5     66 0.12615437E+02 0.77875175E+02 0.75467711E-02 0.11524725E+00
       -1 -1    0    0    0  501 0.00000000E+00 0.00000000E+00 0.81831453E+02 0.81831453E+02 0.00000000E+00 0.0000E+00 0.9000E+01
        1 -1    0    0  501    0 0.00000000E+00 0.00000000E+00 -.34194767E+02 0.34194767E+02 0.00000000E+00 0.0000E+00 0.9000E+01
       23  2    1    2    0    0 0.00000000E+00 0.00000000E+00 0.47636686E+02 0.11602622E+03 0.10579617E+03 0.0000E+00 0.0000E+00
      -13  1    3    3    0    0 0.87887794E+01 -.12352307E+02 0.79398054E+02 0.80832377E+02 0.00000000E+00 0.0000E+00 0.9000E+01
       13  1    3    3    0    0 -.87887794E+01 0.12352307E+02 -.31761368E+02 0.35193843E+02 0.00000000E+00 0.0000E+00 0.9000E+01
#aMCatNLO 1  0  0  1  2 0.15979732D+02 0.00000000D+00  -5  5  0 0.00000000D+00 0.00000000D+00 0.00000000D+00 0.00000000D+00 0.00000000D+00
  <mgrwgt>
 0.4242588022D+03    9    2    0
 0.528980857346867D+02 0.000000000000000D+00 0.000000000000000D+00 0.528980857346867D+02
 0.528980857346867D+02 0.000000000000000D+00 0.000000000000000D+00 -.528980857346867D+02
 0.528980857346867D+02 0.878877938069004D+01 -.123523065373180D+02 0.506792398778825D+02
 0.528980857346867D+02 -.878877938069004D+01 0.123523065373180D+02 -.506792398778825D+02
 0.000000000000000D+00 -.000000000000000D+00 0.000000000000000D+00 0.000000000000000D+00
 0.746345251863032D+02 0.000000000000000D+00 0.000000000000000D+00 0.746345251863032D+02
 0.560024230237053D+02 0.000000000000000D+00 0.000000000000000D+00 -.560024230237053D+02
 0.554582532448110D+02 0.113285334844377D+02 -.194652723448097D+02 0.506792398778825D+02
 0.513709680691083D+02 -.634482677223049D+01 0.550764731875363D+01 -.506792398778825D+02
 0.238077268960893D+02 -.498370671220719D+01 0.139576250260561D+02 0.186321021625979D+02
0.440513863167D-01 0.000000000000D+00 0.000000000000D+00 0.270520867318D-01 0.000000000000D+00  5 -1 1 -13 13 21 0 0.12589454D-01 0.52607334D-02 0.22982212D+03 0.11192830D+05 0.11192830D+05 0.12042914D+01  1  2  2  1  5  1       -1 0.303421610454D+03
0.219988707403D-02 0.000000000000D+00 -.169168922452D-03 0.270520867318D-01 0.000000000000D+00  5 -1 1 -13 13 21 2 0.12589454D-01 0.52607334D-02 0.22982212D+03 0.11192830D+05 0.11192830D+05 0.12042914D+01  1  2  3  1  5  1       -1 0.154094626660D+02
0.172389710659D-02 0.000000000000D+00 0.000000000000D+00 0.270520867318D-01 0.000000000000D+00  5 -1 1 -13 13 21 2 0.12589454D-01 0.52607334D-02 0.22982212D+03 0.11192830D+05 0.11192830D+05 0.12042914D+01  1  2 15  1  5  1       -1 0.172211209738D+02
0.646953003855D-01 0.000000000000D+00 0.000000000000D+00 0.270520867318D-01 0.000000000000D+00  5 -1 1 -13 13 21 2 0.18805011D-01 0.52607334D-02 0.52313640D+03 0.11412483D+05 0.11412483D+05 0.12034283D+01  1  2 12  1  5  1       -1 0.352238379807D+03
-.654962760785D-01 0.000000000000D+00 0.000000000000D+00 0.270520867318D-01 0.000000000000D+00  5 -1 1 -13 13 21 2 0.12589454D-01 0.52607334D-02 0.22982212D+03 0.11192830D+05 0.11192830D+05 0.12042914D+01  1  2  4  1  5  1       -1 -.654284579613D+03
-.389920641988D-01 0.000000000000D+00 -.181153996613D-01 0.270520867318D-01 0.000000000000D+00  5 -1 1 -13 13 21 2 0.18697641D-01 0.52607334D-02 0.22982212D+03 0.11192830D+05 0.11192830D+05 0.12042914D+01  1  2  5  1  5  1       -1 -.600969373874D+03
0.440005626516D-01 0.000000000000D+00 0.167851701005D-01 0.270520867318D-01 0.000000000000D+00  5 -1 1 -13 13 21 2 0.12589454D-01 0.52607334D-02 0.22982212D+03 0.11192830D+05 0.11192830D+05 0.12042914D+01  1  2  6  1  5  1       -1 0.109109989920D+04
0.308662269425D-02 0.000000000000D+00 0.000000000000D+00 0.270520867318D-01 0.000000000000D+00  5 21 1 -13 13 1 2 0.18805011D-01 0.52607334D-02 0.52313640D+03 0.11412483D+05 0.11412483D+05 0.12034283D+01  1  2 12  3  5  1       -1 0.203138810280D+03
-.123186102019D-02 0.000000000000D+00 -.855226204787D-03 0.270520867318D-01 0.000000000000D+00  5 21 1 -13 13 1 2 0.18697641D-01 0.52607334D-02 0.22982212D+03 0.11192830D+05 0.11192830D+05 0.12042914D+01  1  2  5  3  5  1       -1 -.303016527656D+03
  </mgrwgt>
  </event>
  <event npLO=' -1 ' npNLO=' 0 '>
  5     66 -.12615437E+02 0.65170020E+02 0.75467711E-02 0.11603652E+00
       -1 -1    0    0    0  501 0.00000000E+00 0.00000000E+00 0.17222563E+03 0.17222563E+03 0.00000000E+00 0.0000E+00 0.9000E+01
        1 -1    0    0  501    0 0.00000000E+00 0.00000000E+00 -.15098450E+02 0.15098450E+02 0.00000000E+00 0.0000E+00 0.9000E+01
       23  2    1    2    0    0 0.00000000E+00 0.00000000E+00 0.15712718E+03 0.18732408E+03 0.10198706E+03 0.0000E+00 0.0000E+00
      -13  1    3    3    0    0 0.58833035E+01 -.29191490E+02 0.15459642E+03 0.15743827E+03 0.00000000E+00 0.0000E+00 0.9000E+01
       13  1    3    3    0    0 -.58833035E+01 0.29191490E+02 0.25307533E+01 0.29885801E+02 0.00000000E+00 0.0000E+00 0.9000E+01
#aMCatNLO 1  0  0  2  1 0.31278283D+01 0.00000000D+00  -5  5  0 0.00000000D+00 0.00000000D+00 0.00000000D+00 0.00000000D+00 0.00000000D+00
  <mgrwgt>
 -.3748936883D+03   11    2    0
 0.509935284181888D+02 0.000000000000000D+00 0.000000000000000D+00 0.509935284181888D+02
 0.509935284181888D+02 0.000000000000000D+00 0.000000000000000D+00 -.509935284181888D+02
 0.509935284181888D+02 0.588330352597574D+01 -.291914904824110D+02 0.413954534166879D+02
 0.509935284181888D+02 -.588330352597574D+01 0.291914904824110D+02 -.413954534166879D+02
 0.000000000000000D+00 0.000000000000000D+00 0.000000000000000D+00 -.000000000000000D+00
 0.520691769181805D+02 0.000000000000000D+00 0.000000000000000D+00 0.520691769181805D+02
 0.522414495442113D+02 0.000000000000000D+00 0.000000000000000D+00 -.522414495442113D+02
 0.509185162796062D+02 0.474118708593258D+01 -.292682914014387D+02 0.413954534166879D+02
 0.510942776179480D+02 -.702738970290957D+01 0.291145571096351D+02 -.413954534166879D+02
 0.229783256483764D+01 0.228620261697699D+01 0.153734291803615D+00 -.172272626030759D+00
0.649091768579D-01 0.000000000000D+00 0.000000000000D+00 0.358774640364D-01 0.000000000000D+00  5 -1 1 -13 13 21 0 0.26496250D-01 0.23228384D-02 0.88675638D+03 0.10401360D+05 0.10401360D+05 0.12075647D+01  1  2  2  2  5  2        1 0.431105717545D+03
-.233742033536D-02 0.000000000000D+00 -.249268330113D-03 0.358774640364D-01 0.000000000000D+00  5 -1 1 -13 13 21 2 0.26496250D-01 0.23228384D-02 0.88675638D+03 0.10401360D+05 0.10401360D+05 0.12075647D+01  1  2  3  2  5  2        1 -.285818066454D+02
0.246956478534D-02 0.000000000000D+00 0.000000000000D+00 0.358774640364D-01 0.000000000000D+00  5 -1 1 -13 13 21 2 0.26496250D-01 0.23228384D-02 0.88675638D+03 0.10401360D+05 0.10401360D+05 0.12075647D+01  1  2 15  2  5  2        1 0.239176730767D+02
0.185436530096D-02 0.000000000000D+00 0.000000000000D+00 0.358774640364D-01 0.000000000000D+00  5 -1 1 -13 13 21 2 0.26496250D-01 0.24298799D-02 0.95764989D+03 0.10406610D+05 0.10406610D+05 0.12075421D+01  1  2 12  2  5  2        1 0.168894170892D+02
-.235999593456D+00 0.000000000000D+00 0.000000000000D+00 0.358774640364D-01 0.000000000000D+00  5 -1 1 -13 13 21 2 0.26496250D-01 0.23228384D-02 0.88675638D+03 0.10401360D+05 0.10401360D+05 0.12075647D+01  1  2  4  2  5  2        1 -.228565015018D+04
-.118241912574D+01 0.000000000000D+00 -.214502687543D+00 0.358774640364D-01 0.000000000000D+00  5 -1 1 -13 13 21 2 0.26496250D-01 0.24296876D-02 0.88675638D+03 0.10401360D+05 0.10401360D+05 0.12075647D+01  1  2  5  2  5  2        1 -.155812965128D+05
0.119107793573D+01 0.000000000000D+00 0.214285948887D+00 0.358774640364D-01 0.000000000000D+00  5 -1 1 -13 13 21 2 0.26496250D-01 0.23228384D-02 0.88675638D+03 0.10401360D+05 0.10401360D+05 0.12075647D+01  1  2  6  2  5  2        1 0.166453338646D+05
0.234152029738D+00 0.000000000000D+00 0.000000000000D+00 0.358774640364D-01 0.531571811246D-01  5 -1 1 -13 13 21 2 0.27055157D-01 0.23796833D-02 0.95764989D+03 0.10406610D+05 0.10406610D+05 0.12075421D+01  1  2 11  2  5  2        1 0.212229091937D+04
0.383015826257D-04 0.000000000000D+00 0.000000000000D+00 0.358774640364D-01 0.000000000000D+00  5 -1 21 -13 13 -1 2 0.26496250D-01 0.24298799D-02 0.95764989D+03 0.10406610D+05 0.10406610D+05 0.12075421D+01  1  2 12  4  5  2        1 0.575407241305D+01
-.917757678227D-02 0.000000000000D+00 -.169278628280D-02 0.358774640364D-01 0.000000000000D+00  5 -1 21 -13 13 -1 2 0.26496250D-01 0.24296876D-02 0.88675638D+03 0.10401360D+05 0.10401360D+05 0.12075647D+01  1  2  5  4  5  2        1 -.200514126221D+04
0.186937756523D-02 0.000000000000D+00 0.000000000000D+00 0.358774640364D-01 0.235480745678D-03  5 -1 21 -13 13 -1 2 0.27055157D-01 0.23796833D-02 0.95764989D+03 0.10406610D+05 0.10406610D+05 0.12075421D+01  1  2 11  4  5  2        1 0.280484379467D+03
  </mgrwgt>
  </event>
  <event npLO=' -1 ' npNLO=' 0 '>
  5     66 0.12615437E+02 0.58786622E+02 0.75467711E-02 0.11754768E+00
       -1 -1    0    0    0  501 0.00000000E+00 0.00000000E+00 0.20167280E+03 0.20167280E+03 0.00000000E+00 0.0000E+00 0.9000E+01
        1 -1    0    0  501    0 0.00000000E+00 0.00000000E+00 -.10433030E+02 0.10433030E+02 0.00000000E+00 0.0000E+00 0.9000E+01
       23  2    1    2    0    0 0.00000000E+00 0.00000000E+00 0.19123977E+03 0.21210583E+03 0.91740035E+02 0.0000E+00 0.0000E+00
      -13  1    3    3    0    0 0.32607460E+02 0.24698146E+02 0.14360852E+03 0.14932064E+03 0.00000000E+00 0.0000E+00 0.9000E+01
       13  1    3    3    0    0 -.32607460E+02 -.24698146E+02 0.47631248E+02 0.62785195E+02 0.00000000E+00 0.0000E+00 0.9000E+01
#aMCatNLO 1  0  0  1  2 0.22618041D+02 0.00000000D+00  -5  5  0 0.00000000D+00 0.00000000D+00 0.00000000D+00 0.00000000D+00 0.00000000D+00
  <mgrwgt>
 0.3611865060D+03    9    2    0
 0.458700174807482D+02 0.000000000000000D+00 0.000000000000000D+00 0.458700174807482D+02
 0.458700174807482D+02 0.000000000000000D+00 0.000000000000000D+00 -.458700174807482D+02
 0.458700174807482D+02 0.326074603826224D+02 0.246981458877818D+02 0.207560502212176D+02
 0.458700174807482D+02 -.326074603826224D+02 -.246981458877818D+02 -.207560502212176D+02
 0.000000000000000D+00 -.000000000000000D+00 0.000000000000000D+00 0.000000000000000D+00
 0.602691419905166D+02 0.000000000000000D+00 0.000000000000000D+00 0.602691419905166D+02
 0.529945132220769D+02 0.000000000000000D+00 0.000000000000000D+00 -.529945132220769D+02
 0.504442066939673D+02 0.411540398900738D+02 0.204975454365688D+02 0.207560502212176D+02
 0.431072919900473D+02 -.247119324243449D+02 -.285787578068763D+02 -.207560502212176D+02
 0.197121565285790D+02 -.164421074657288D+02 0.808121237030756D+01 0.727462876843970D+01
0.289025159358D-01 0.000000000000D+00 0.000000000000D+00 0.989180674486D+00 0.000000000000D+00  5 -1 1 -13 13 21 0 0.31026585D-01 0.16050816D-02 0.16732449D+04 0.84162340D+04 0.84162340D+04 0.12171717D+01  1  2  2  1  5  1       -1 0.242664937921D+03
-.158007720112D-02 0.000000000000D+00 -.110993271401D-03 0.989180674486D+00 0.000000000000D+00  5 -1 1 -13 13 21 2 0.31026585D-01 0.16050816D-02 0.16732449D+04 0.84162340D+04 0.84162340D+04 0.12171717D+01  1  2  3  1  5  1       -1 -.218843464425D+02
0.142181156327D-02 0.000000000000D+00 0.000000000000D+00 0.989180674486D+00 0.000000000000D+00  5 -1 1 -13 13 21 2 0.31026585D-01 0.16050816D-02 0.16732449D+04 0.84162340D+04 0.84162340D+04 0.12171717D+01  1  2 15  1  5  1       -1 0.176854897028D+02
0.163219895984D-01 0.000000000000D+00 0.000000000000D+00 0.989180674486D+00 0.000000000000D+00  5 -1 1 -13 13 21 2 0.47097958D-01 0.16050816D-02 0.26049861D+04 0.87518829D+04 0.87518829D+04 0.12153796D+01  1  2 12  1  5  1       -1 0.101172430393D+03
-.171216030321D-01 0.000000000000D+00 0.000000000000D+00 0.989180674486D+00 0.000000000000D+00  5 -1 1 -13 13 21 2 0.31026585D-01 0.16050816D-02 0.16732449D+04 0.84162340D+04 0.84162340D+04 0.12171717D+01  1  2  4  1  5  1       -1 -.212970510259D+03
-.261013383615D-01 0.000000000000D+00 -.115325570028D-01 0.989180674486D+00 0.000000000000D+00  5 -1 1 -13 13 21 2 0.46395065D-01 0.16050816D-02 0.16732449D+04 0.84162340D+04 0.84162340D+04 0.12171717D+01  1  2  5  1  5  1       -1 -.284670312545D+03
0.292187363021D-01 0.000000000000D+00 0.106581606828D-01 0.989180674486D+00 0.000000000000D+00  5 -1 1 -13 13 21 2 0.31026585D-01 0.16050816D-02 0.16732449D+04 0.84162340D+04 0.84162340D+04 0.12171717D+01  1  2  6  1  5  1       -1 0.577602355111D+03
0.801684389958D-03 0.000000000000D+00 0.000000000000D+00 0.989180674486D+00 0.000000000000D+00  5 21 1 -13 13 1 2 0.47097958D-01 0.16050816D-02 0.26049861D+04 0.87518829D+04 0.87518829D+04 0.12153796D+01  1  2 12  3  5  1       -1 0.469790505945D+02
-.851008884045D-03 0.000000000000D+00 -.551312465303D-03 0.989180674486D+00 0.000000000000D+00  5 21 1 -13 13 1 2 0.46395065D-01 0.16050816D-02 0.16732449D+04 0.84162340D+04 0.84162340D+04 0.12171717D+01  1  2  5  3  5  1       -1 -.105392588483D+03
  </mgrwgt>
  </event>
  <event npLO=' -1 ' npNLO=' 0 '>
  5     66 0.12615437E+02 0.49174847E+02 0.75467711E-02 0.11786637E+00
       -1 -1    0    0    0  501 0.00000000E+00 0.00000000E+00 0.79334898E+01 0.79334898E+01 0.00000000E+00 0.0000E+00 0.9000E+01
        1 -1    0    0  501    0 0.00000000E+00 0.00000000E+00 -.26286677E+03 0.26286677E+03 0.00000000E+00 0.0000E+00 0.9000E+01
       23  2    1    2    0    0 0.00000000E+00 0.00000000E+00 -.25493328E+03 0.27080026E+03 0.91333473E+02 0.0000E+00 0.0000E+00
      -13  1    3    3    0    0 0.91240307E-01 -.26899793E+02 -.18050163E+02 0.32394684E+02 0.00000000E+00 0.0000E+00 0.9000E+01
       13  1    3    3    0    0 -.91240307E-01 0.26899793E+02 -.23688311E+03 0.23840557E+03 0.00000000E+00 0.0000E+00 0.9000E+01
#aMCatNLO 1  0  0  1  2 0.10584410D+02 0.00000000D+00  -5  5  0 0.00000000D+00 0.00000000D+00 0.00000000D+00 0.00000000D+00 0.00000000D+00
  <mgrwgt>
 0.3698114206D+03    9    2    0
 0.456667363290624D+02 0.000000000000000D+00 0.000000000000000D+00 0.456667363290624D+02
 0.456667363290624D+02 0.000000000000000D+00 0.000000000000000D+00 -.456667363290624D+02
 0.456667363290624D+02 0.912403070835374D-01 -.268997930280440D+02 0.369031654089844D+02
 0.456667363290624D+02 -.912403070835374D-01 0.268997930280440D+02 -.369031654089844D+02
 0.000000000000000D+00 0.000000000000000D+00 -.000000000000000D+00 0.000000000000000D+00
 0.637335307723385D+02 0.000000000000000D+00 0.000000000000000D+00 0.637335307723385D+02
 0.473642323734286D+02 0.000000000000000D+00 0.000000000000000D+00 -.473642323734286D+02
 0.430013297318315D+02 -.500156964534016D+00 -.220685428724613D+02 0.369031654089844D+02
 0.488842388683438D+02 -.721875340017753D+00 0.320515848052465D+02 -.369031654089844D+02
 0.192121945455918D+02 0.122203230455177D+01 -.998304193278516D+01 0.163692983989098D+02
0.275181255340D-01 0.000000000000D+00 0.000000000000D+00 0.163762048340D+01 0.000000000000D+00  5 -1 1 -13 13 21 0 0.12205369D-02 0.40441041D-01 0.72360719D+03 0.83418032D+04 0.83418032D+04 0.12175799D+01  1  2  2  1  5  1       -1 0.374199687015D+03
-.100813854014D-02 0.000000000000D+00 -.105676847739D-03 0.163762048340D+01 0.000000000000D+00  5 -1 1 -13 13 21 2 0.12205369D-02 0.40441041D-01 0.72360719D+03 0.83418032D+04 0.83418032D+04 0.12175799D+01  1  2  3  1  5  1       -1 -.255319080193D+02
0.101339679254D-02 0.000000000000D+00 0.000000000000D+00 0.163762048340D+01 0.000000000000D+00  5 -1 1 -13 13 21 2 0.12205369D-02 0.40441041D-01 0.72360719D+03 0.83418032D+04 0.83418032D+04 0.12175799D+01  1  2 15  1  5  1       -1 0.204295611032D+02
0.617804428164D-01 0.000000000000D+00 0.000000000000D+00 0.163762048340D+01 0.000000000000D+00  5 -1 1 -13 13 21 2 0.17667270D-02 0.40441041D-01 0.10301366D+04 0.84429577D+04 0.84429577D+04 0.12170261D+01  1  2 12  1  5  1       -1 0.744980225934D+03
-.618198465044D-01 0.000000000000D+00 0.000000000000D+00 0.163762048340D+01 0.000000000000D+00  5 -1 1 -13 13 21 2 0.12205369D-02 0.40441041D-01 0.72360719D+03 0.83418032D+04 0.83418032D+04 0.12175799D+01  1  2  4  1  5  1       -1 -.124625649188D+04
-.637448233878D-01 0.000000000000D+00 -.119932835248D-01 0.163762048340D+01 0.000000000000D+00  5 -1 1 -13 13 21 2 0.17659015D-02 0.40441041D-01 0.72360719D+03 0.83418032D+04 0.83418032D+04 0.12175799D+01  1  2  5  1  5  1       -1 -.112305215287D+04
0.644986942717D-01 0.000000000000D+00 0.112191990294D-01 0.163762048340D+01 0.000000000000D+00  5 -1 1 -13 13 21 2 0.12205369D-02 0.40441041D-01 0.72360719D+03 0.83418032D+04 0.83418032D+04 0.12175799D+01  1  2  6  1  5  1       -1 0.185320604661D+04
0.277737191329D-02 0.000000000000D+00 0.000000000000D+00 0.163762048340D+01 0.000000000000D+00  5 21 1 -13 13 1 2 0.17667270D-02 0.40441041D-01 0.10301366D+04 0.84429577D+04 0.84429577D+04 0.12170261D+01  1  2 12  3  5  1       -1 0.609892644858D+03
-.249655611914D-02 0.000000000000D+00 -.538670326543D-03 0.163762048340D+01 0.000000000000D+00  5 21 1 -13 13 1 2 0.17659015D-02 0.40441041D-01 0.72360719D+03 0.83418032D+04 0.83418032D+04 0.12175799D+01  1  2  5  3  5  1       -1 -.838056192158D+03
  </mgrwgt>
  </event>
  <event npLO=' -1 ' npNLO=' 0 '>
  5     66 0.12615437E+02 0.91127301E+02 0.75467711E-02 0.10568584E+00
       -1 -1    0    0    0  501 0.00000000E+00 0.00000000E+00 0.23061451E+02 0.23061451E+02 0.00000000E+00 0.0000E+00 0.9000E+01
        1 -1    0    0  501    0 0.00000000E+00 0.00000000E+00 -.90022361E+02 0.90022361E+02 0.00000000E+00 0.0000E+00 0.9000E+01
       23  2    1    2    0    0 0.00000000E+00 0.00000000E+00 -.66960910E+02 0.11308381E+03 0.91127301E+02 0.0000E+00 0.0000E+00
      -13  1    3    3    0    0 -.14557870E+02 0.33908747E+02 -.66646660E+02 0.76180785E+02 0.00000000E+00 0.0000E+00 0.9000E+01
       13  1    3    3    0    0 0.14557870E+02 -.33908747E+02 -.31425057E+00 0.36903027E+02 0.00000000E+00 0.0000E+00 0.9000E+01
#aMCatNLO 1  0  0  2  1 0.37100840D+03 0.00000000D+00  -5  5  0 0.00000000D+00 0.00000000D+00 0.00000000D+00 0.00000000D+00 0.00000000D+00
  <mgrwgt>
 0.3573490074D+03    3    2    0
 0.455636504977169D+02 0.000000000000000D+00 0.000000000000000D+00 0.455636504977169D+02
 0.455636504977169D+02 0.000000000000000D+00 0.000000000000000D+00 -.455636504977169D+02
 0.455636504977169D+02 -.145578700058416D+02 0.339087465507988D+02 -.267266079951198D+02
 0.455636504977169D+02 0.145578700058416D+02 -.339087465507988D+02 0.267266079951198D+02
 0.000000000000000D+00 0.000000000000000D+00 0.000000000000000D+00 0.000000000000000D+00
 0.384950127170936D+03 0.000000000000000D+00 0.000000000000000D+00 0.384950127170936D+03
 0.125648751866802D+03 0.000000000000000D+00 0.000000000000000D+00 -.125648751866802D+03
 0.614188166788579D+02 -.518186401863257D+02 -.193077185743541D+02 -.267266079951198D+02
 0.136170920892598D+03 -.487382034268903D+02 -.124309274185527D+03 0.267266079951198D+02
 0.313009141466283D+03 0.100556843613216D+03 0.143616992759881D+03 0.259301375304134D+03
0.310748518395D-01 0.000000000000D+00 0.000000000000D+00 0.909142499967D+00 0.000000000000D+00  5 -1 1 -13 13 21 0 0.35479155D-02 0.13849594D-01 0.13617347D+04 0.83041850D+04 0.83041850D+04 0.12177878D+01  1  2  2  2  5  2        1 0.363456691581D+03
-.163306009591D-02 0.000000000000D+00 -.119335613260D-03 0.909142499967D+00 0.000000000000D+00  5 -1 1 -13 13 21 2 0.35479155D-02 0.13849594D-01 0.13617347D+04 0.83041850D+04 0.83041850D+04 0.12177878D+01  1  2  3  2  5  2        1 -.320686886703D+02
0.149669968081D-02 0.000000000000D+00 0.000000000000D+00 0.909142499967D+00 0.000000000000D+00  5 -1 1 -13 13 21 2 0.35479155D-02 0.13849594D-01 0.13617347D+04 0.83041850D+04 0.83041850D+04 0.12177878D+01  1  2 15  2  5  2        1 0.259610045129D+02
  </mgrwgt>
  </event>
  <event npLO=' -1 ' npNLO=' 0 '>
  5     66 0.12615437E+02 0.48519878E+02 0.75467711E-02 0.11383332E+00
       -1 -1    0    0    0  501 0.00000000E+00 0.00000000E+00 0.17758073E+01 0.17758073E+01 0.00000000E+00 0.0000E+00 0.9000E+01
        1 -1    0    0  501    0 0.00000000E+00 0.00000000E+00 -.18977871E+04 0.18977871E+04 0.00000000E+00 0.0000E+00 0.9000E+01
       23  2    1    2    0    0 0.00000000E+00 0.00000000E+00 -.18960113E+04 0.18995629E+04 0.11610520E+03 0.0000E+00 0.0000E+00
      -11  1    3    3    0    0 -.26885132E+02 -.48654619E+02 -.67422802E+03 0.67651571E+03 0.00000000E+00 0.0000E+00 0.9000E+01
       11  1    3    3    0    0 0.26885132E+02 0.48654619E+02 -.12217833E+04 0.12230472E+04 0.00000000E+00 0.0000E+00 0.9000E+01
#aMCatNLO 1  0  0  1  2 0.10532042D+02 0.00000000D+00  -5  5  0 0.00000000D+00 0.00000000D+00 0.00000000D+00 0.00000000D+00 0.00000000D+00
  <mgrwgt>
 0.7574179629D+03    6    2    0
 0.580525979897044D+02 0.000000000000000D+00 0.000000000000000D+00 0.580525979897044D+02
 0.580525979897044D+02 0.000000000000000D+00 0.000000000000000D+00 -.580525979897044D+02
 0.580525979897044D+02 -.268851324084166D+02 -.486546194492964D+02 0.167338517676082D+02
 0.580525979897044D+02 0.268851324084166D+02 0.486546194492964D+02 -.167338517676082D+02
 0.000000000000000D+00 0.000000000000000D+00 -.000000000000000D+00 -.000000000000000D+00
 0.595418013920100D+02 0.000000000000000D+00 0.000000000000000D+00 0.595418013920100D+02
 0.628169613110530D+02 0.000000000000000D+00 0.000000000000000D+00 -.628169613110530D+02
 0.591345008802768D+02 -.294949532727925D+02 -.484449701291575D+02 0.167338517676082D+02
 0.570866672765425D+02 0.243209179198051D+02 0.488606051671537D+02 -.167338517676082D+02
 0.613759454624363D+01 0.517403535298744D+01 -.415635037996206D+00 -.327515991904298D+01
0.114849729137D+00 0.000000000000D+00 0.000000000000D+00 0.645386015684D-02 0.000000000000D+00  5 -1 1 -11 11 21 0 0.27320112D-03 0.29196724D+00 0.30900823D+04 0.13480417D+05 0.13480417D+05 0.11961101D+01  1  2  2  1  5  1       -1 0.494333217136D+03
-.636594641957D-02 0.000000000000D+00 -.441053200513D-03 0.645386015684D-02 0.000000000000D+00  5 -1 1 -11 11 21 2 0.27320112D-03 0.29196724D+00 0.30900823D+04 0.13480417D+05 0.13480417D+05 0.11961101D+01  1  2  3  1  5  1       -1 -.432015357011D+02
0.559080015227D-02 0.000000000000D+00 0.000000000000D+00 0.645386015684D-02 0.000000000000D+00  5 -1 1 -11 11 21 2 0.27320112D-03 0.29196724D+00 0.30900823D+04 0.13480417D+05 0.13480417D+05 0.11961101D+01  1  2 15  1  5  1       -1 0.344275512682D+02
0.796505130555D-01 0.000000000000D+00 0.000000000000D+00 0.645386015684D-02 0.000000000000D+00  5 -1 1 -11 11 21 2 0.30320618D-03 0.29196724D+00 0.33923125D+04 0.13507360D+05 0.13507360D+05 0.11960233D+01  1  2 12  1  5  1       -1 0.426062948622D+03
-.501536606738D-01 0.000000000000D+00 0.000000000000D+00 0.645386015684D-02 0.000000000000D+00  5 -1 1 -11 11 21 2 0.27320112D-03 0.29196724D+00 0.30900823D+04 0.13480417D+05 0.13480417D+05 0.11961101D+01  1  2  4  1  5  1       -1 -.308840895240D+03
0.134057854463D-02 0.000000000000D+00 0.000000000000D+00 0.645386015684D-02 0.000000000000D+00  5 21 1 -11 11 1 2 0.30320618D-03 0.29196724D+00 0.33923125D+04 0.13507360D+05 0.13507360D+05 0.11960233D+01  1  2 12  3  5  1       -1 0.154636676855D+03
  </mgrwgt>
  </event>
  <event npLO=' -1 ' npNLO=' 0 '>
  5     66 0.12615437E+02 0.57269364E+02 0.75467711E-02 0.11769812E+00
       -1 -1    0    0    0  501 0.00000000E+00 0.00000000E+00 0.14727923E+02 0.14727923E+02 0.00000000E+00 0.0000E+00 0.9000E+01
        1 -1    0    0  501    0 0.00000000E+00 0.00000000E+00 -.14515108E+03 0.14515108E+03 0.00000000E+00 0.0000E+00 0.9000E+01
       23  2    1    2    0    0 0.00000000E+00 0.00000000E+00 -.13042315E+03 0.15987900E+03 0.92472134E+02 0.0000E+00 0.0000E+00
      -11  1    3    3    0    0 -.11180237E+01 -.45150161E+02 -.48097070E+02 0.65978142E+02 0.00000000E+00 0.0000E+00 0.9000E+01
       11  1    3    3    0    0 0.11180237E+01 0.45150161E+02 -.82326084E+02 0.93900858E+02 0.00000000E+00 0.0000E+00 0.9000E+01
#aMCatNLO 1  0  0  1  2 0.94271705D+01 0.00000000D+00  -5  5  0 0.00000000D+00 0.00000000D+00 0.00000000D+00 0.00000000D+00 0.00000000D+00
  <mgrwgt>
 0.1348803950D+03   11    2    0
 0.462360667833002D+02 0.000000000000000D+00 0.000000000000000D+00 0.462360667833002D+02
 0.462360667833002D+02 0.000000000000000D+00 0.000000000000000D+00 -.462360667833002D+02
 0.462360667833002D+02 -.111802374645136D+01 -.451501613307119D+02 0.989882954206494D+01
 0.462360667833002D+02 0.111802374645136D+01 0.451501613307119D+02 -.989882954206494D+01
 0.000000000000000D+00 0.000000000000000D+00 -.000000000000000D+00 0.000000000000000D+00
 0.509283223473138D+02 0.000000000000000D+00 0.000000000000000D+00 0.509283223473138D+02
 0.493124587831276D+02 0.000000000000000D+00 0.000000000000000D+00 -.493124587831276D+02
 0.450617618117346D+02 -.442925517151133D+01 -.437373667462993D+02 0.989882954206494D+01
 0.476983826285937D+02 -.228883384890316D+01 0.466037564869291D+02 -.989882954206494D+01
 0.748063669011308D+01 0.671808902041449D+01 -.286638974062983D+01 0.161586356418616D+01
0.263999910323D-01 0.000000000000D+00 0.000000000000D+00 0.475173772257D+00 0.000000000000D+00  5 -1 1 -11 11 21 0 0.22658343D-02 0.22330935D-01 0.20397870D+04 0.85510955D+04 0.85510955D+04 0.12164422D+01  1  2  2  1  5  1       -1 0.317902261688D+03
-.146568473265D-02 0.000000000000D+00 -.101382916841D-03 0.475173772257D+00 0.000000000000D+00  5 -1 1 -11 11 21 2 0.22658343D-02 0.22330935D-01 0.20397870D+04 0.85510955D+04 0.85510955D+04 0.12164422D+01  1  2  3  1  5  1       -1 -.287055008439D+02
0.132599336416D-02 0.000000000000D+00 0.000000000000D+00 0.475173772257D+00 0.000000000000D+00  5 -1 1 -11 11 21 2 0.22658343D-02 0.22330935D-01 0.20397870D+04 0.85510955D+04 0.85510955D+04 0.12164422D+01  1  2 15  1  5  1       -1 0.236273020987D+02
0.283374804560D-01 0.000000000000D+00 0.000000000000D+00 0.475173772257D+00 0.000000000000D+00  5 -1 1 -11 11 21 2 0.26618428D-02 0.22330935D-01 0.23973279D+04 0.86044444D+04 0.86044444D+04 0.12161572D+01  1  2 12  1  5  1       -1 0.402536453316D+03
-.301950107672D-01 0.000000000000D+00 0.000000000000D+00 0.475173772257D+00 0.000000000000D+00  5 -1 1 -11 11 21 2 0.22658343D-02 0.22330935D-01 0.20397870D+04 0.85510955D+04 0.85510955D+04 0.12164422D+01  1  2  4  1  5  1       -1 -.538031833758D+03
-.940507338630D-01 0.000000000000D+00 -.226525760953D-01 0.475173772257D+00 0.000000000000D+00  5 -1 1 -11 11 21 2 0.26609432D-02 0.22330935D-01 0.20397870D+04 0.85510955D+04 0.85510955D+04 0.12164422D+01  1  2  5  1  5  1       -1 -.179804573468D+04
0.967291027514D-01 0.000000000000D+00 0.223630609964D-01 0.475173772257D+00 0.000000000000D+00  5 -1 1 -11 11 21 2 0.22658343D-02 0.22330935D-01 0.20397870D+04 0.85510955D+04 0.85510955D+04 0.12164422D+01  1  2  6  1  5  1       -1 0.229467786150D+04
0.515812921405D-06 0.000000000000D+00 0.000000000000D+00 0.475173772257D+00 0.707983490849D-01  5 -1 1 -11 11 21 2 0.24957819D-02 0.23816760D-01 0.23973279D+04 0.86044444D+04 0.86044444D+04 0.12161572D+01  1  2 11  1  5  1       -1 0.740222136356D-02
0.684522847386D-03 0.000000000000D+00 0.000000000000D+00 0.475173772257D+00 0.000000000000D+00  5 21 1 -11 11 1 2 0.26618428D-02 0.22330935D-01 0.23973279D+04 0.86044444D+04 0.86044444D+04 0.12161572D+01  1  2 12  3  5  1       -1 0.168493228336D+03
-.209017441654D-02 0.000000000000D+00 -.546279898535D-03 0.475173772257D+00 0.000000000000D+00  5 21 1 -11 11 1 2 0.26609432D-02 0.22330935D-01 0.20397870D+04 0.85510955D+04 0.85510955D+04 0.12164422D+01  1  2  5  3  5  1       -1 -.707584305759D+03
0.130059560234D-07 0.000000000000D+00 0.000000000000D+00 0.475173772257D+00 0.115667776768D-02  5 21 1 -11 11 1 2 0.24957819D-02 0.23816760D-01 0.23973279D+04 0.86044444D+04 0.86044444D+04 0.12161572D+01  1  2 11  3  5  1       -1 0.326090757564D-02
  </mgrwgt>
  </event>
  <event npLO=' -1 ' npNLO=' 0 '>
  6     66 -.12615437E+02 0.90707491E+02 0.75467711E-02 0.11808334E+00
       -1 -1    0    0    0  502 0.00000000E+00 0.00000000E+00 0.30427021E+03 0.30427021E+03 0.00000000E+00 0.0000E+00 0.9000E+01
        1 -1    0    0  501    0 0.00000000E+00 0.00000000E+00 -.73514265E+01 0.73514265E+01 0.00000000E+00 0.0000E+00 0.9000E+01
       23  2    1    2    0    0 0.29570931E+01 -.18068859E+01 0.29014100E+03 0.30400931E+03 0.90707491E+02 0.0000E+00 0.0000E+00
      -13  1    3    3    0    0 -.25039094E+00 0.39979973E+02 0.20785598E+03 0.21166617E+03 0.00000000E+00 0.0000E+00 0.9000E+01
       13  1    3    3    0    0 0.32074841E+01 -.41786859E+02 0.82285023E+02 0.92343135E+02 0.00000000E+00 0.0000E+00 0.9000E+01
       21  1    1    2  501  502 -.29570931E+01 0.18068859E+01 0.67777887E+01 0.76123358E+01 0.00000000E+00 0.0000E+00 0.9000E+01
#aMCatNLO 2  0  0  1  2 0.63902720D+01 0.00000000D+00  -5  5  0 0.00000000D+00 0.00000000D+00 0.00000000D+00 0.00000000D+00 0.00000000D+00
  <mgrwgt>
 -.9939089370D+02    3    2    0
 0.453537455824964D+02 0.000000000000000D+00 0.000000000000000D+00 0.453537455824964D+02
 0.453537455824964D+02 0.000000000000000D+00 0.000000000000000D+00 -.453537455824964D+02
 0.453537455824964D+02 -.171475953135371D+01 0.408747523942137D+02 0.195774476074682D+02
 0.453537455824964D+02 0.171475953135371D+01 -.408747523942137D+02 -.195774476074682D+02
 0.000000000000000D+00 -.000000000000000D+00 0.000000000000000D+00 -.000000000000000D+00
 0.464860864243213D+02 0.000000000000000D+00 0.000000000000000D+00 0.464860864243213D+02
 0.481180562112029D+02 0.000000000000000D+00 0.000000000000000D+00 -.481180562112029D+02
 0.445167088490493D+02 -.250390942952810D+00 0.399799726901301D+02 0.195774476074682D+02
 0.462569557780600D+02 0.320748407895192D+01 -.417868585671800D+02 -.195774476074682D+02
 0.383047800841489D+01 -.295709313599911D+01 0.180688587704996D+01 -.163196978688163D+01
-.373073545752D-01 0.000000000000D+00 0.000000000000D+00 0.949757968465D+00 0.000000000000D+00  5 -1 1 -13 13 21 2 0.49663920D-01 0.10660151D-02 0.18214104D+04 0.82398582D+04 0.82398582D+04 0.12181457D+01  1  2 13  1  5  1       -1 -.367671850180D+03
-.159046181371D-02 0.000000000000D+00 0.000000000000D+00 0.949757968465D+00 0.000000000000D+00  5 -1 1 -13 13 21 2 0.45670552D-01 0.10660151D-02 0.16736858D+04 0.82278490D+04 0.82278490D+04 0.12182129D+01  1  2  8  1  5  1       -1 -.181143642110D+02
0.284198376979D-01 0.000000000000D+00 0.000000000000D+00 0.949757968465D+00 0.626777043921D+00  5 -1 1 -13 13 21 2 0.46810802D-01 0.11309887D-02 0.18214104D+04 0.82398582D+04 0.82398582D+04 0.12181457D+01  1  2  1  1  5  1       -1 0.286395320694D+03
  </mgrwgt>
  </event>
  <event npLO=' -1 ' npNLO=' 0 '>
  5     66 0.12615437E+02 0.45323774E+02 0.75467711E-02 0.11730078E+00
       -1 -1    0    0    0  501 0.00000000E+00 0.00000000E+00 0.20893636E+02 0.20893636E+02 0.00000000E+00 0.0000E+00 0.9000E+01
        1 -1    0    0  501    0 0.00000000E+00 0.00000000E+00 -.96179804E+02 0.96179804E+02 0.00000000E+00 0.0000E+00 0.9000E+01
       23  2    1    2    0    0 0.00000000E+00 0.00000000E+00 -.75286168E+02 0.11707344E+03 0.89655915E+02 0.0000E+00 0.0000E+00
      -11  1    3    3    0    0 0.65828735E+01 0.44194862E+02 -.32930274E+02 0.55506063E+02 0.00000000E+00 0.0000E+00 0.9000E+01
       11  1    3    3    0    0 -.65828735E+01 -.44194862E+02 -.42355894E+02 0.61567376E+02 0.00000000E+00 0.0000E+00 0.9000E+01
#aMCatNLO 1  0  0  2  1 0.40359619D+02 0.00000000D+00  -5  5  0 0.00000000D+00 0.00000000D+00 0.00000000D+00 0.00000000D+00 0.00000000D+00
  <mgrwgt>
 0.3764163501D+03    9    2    0
 0.448279575700848D+02 0.000000000000000D+00 0.000000000000000D+00 0.448279575700848D+02
 0.448279575700848D+02 0.000000000000000D+00 0.000000000000000D+00 -.448279575700848D+02
 0.448279575700848D+02 0.658287354347668D+01 0.441948623470675D+02 0.360911317911718D+01
 0.448279575700848D+02 -.658287354347668D+01 -.441948623470675D+02 -.360911317911718D+01
 0.000000000000000D+00 0.000000000000000D+00 -.000000000000000D+00 -.000000000000000D+00
 0.595921674639537D+02 0.000000000000000D+00 0.000000000000000D+00 0.595921674639537D+02
 0.672176026176216D+02 0.000000000000000D+00 0.000000000000000D+00 -.672176026176216D+02
 0.604085724956267D+02 -.742056346566968D+00 0.602960967675208D+02 0.360911317911718D+01
 0.344609065319060D+02 -.121017306384952D+02 -.320636319934968D+02 -.360911317911718D+01
 0.319402910540426D+02 0.128437869850622D+02 -.282324647740240D+02 -.762543515366791D+01
0.216944873354D-01 0.000000000000D+00 0.000000000000D+00 0.312754646963D+00 0.000000000000D+00  5 -1 1 -11 11 21 0 0.32144055D-02 0.14796893D-01 0.19965201D+04 0.80381831D+04 0.80381831D+04 0.12192886D+01  1  2  2  2  5  2        1 0.267356307325D+03
-.120523380371D-02 0.000000000000D+00 -.833125436578D-04 0.312754646963D+00 0.000000000000D+00  5 -1 1 -11 11 21 2 0.32144055D-02 0.14796893D-01 0.19965201D+04 0.80381831D+04 0.80381831D+04 0.12192886D+01  1  2  3  2  5  2        1 -.242072824349D+02
0.110679827935D-02 0.000000000000D+00 0.000000000000D+00 0.312754646963D+00 0.000000000000D+00  5 -1 1 -11 11 21 2 0.32144055D-02 0.14796893D-01 0.19965201D+04 0.80381831D+04 0.80381831D+04 0.12192886D+01  1  2 15  2  5  2        1 0.202778783112D+02
0.699572091601D-02 0.000000000000D+00 0.000000000000D+00 0.312754646963D+00 0.000000000000D+00  5 -1 1 -11 11 21 2 0.32144055D-02 0.29494757D-01 0.39431331D+04 0.90002181D+04 0.90002181D+04 0.12141026D+01  1  2 12  2  5  2        1 0.537892709540D+02
-.830395843926D-02 0.000000000000D+00 0.000000000000D+00 0.312754646963D+00 0.000000000000D+00  5 -1 1 -11 11 21 2 0.32144055D-02 0.14796893D-01 0.19965201D+04 0.80381831D+04 0.80381831D+04 0.12192886D+01  1  2  4  2  5  2        1 -.152138525939D+03
-.843545477816D-02 0.000000000000D+00 -.783390832948D-02 0.312754646963D+00 0.000000000000D+00  5 -1 1 -11 11 21 2 0.32144055D-02 0.29076385D-01 0.19965201D+04 0.80381831D+04 0.80381831D+04 0.12192886D+01  1  2  5  2  5  2        1 -.151588734153D+03
0.123108326626D-01 0.000000000000D+00 0.633316790934D-02 0.312754646963D+00 0.000000000000D+00  5 -1 1 -11 11 21 2 0.32144055D-02 0.14796893D-01 0.19965201D+04 0.80381831D+04 0.80381831D+04 0.12192886D+01  1  2  6  2  5  2        1 0.387157336108D+03
0.522220836621D-03 0.000000000000D+00 0.000000000000D+00 0.312754646963D+00 0.000000000000D+00  5 -1 21 -11 11 -1 2 0.32144055D-02 0.29494757D-01 0.39431331D+04 0.90002181D+04 0.90002181D+04 0.12141026D+01  1  2 12  4  5  2        1 0.275391639863D+02
-.154173185149D-03 0.000000000000D+00 -.573154887436D-03 0.312754646963D+00 0.000000000000D+00  5 -1 21 -11 11 -1 2 0.32144055D-02 0.29076385D-01 0.19965201D+04 0.80381831D+04 0.80381831D+04 0.12192886D+01  1  2  5  4  5  2        1 -.517690640784D+02
  </mgrwgt>
  </event>
  <event npLO=' -1 ' npNLO=' 0 '>
  5     66 0.12615437E+02 0.35303980E+02 0.75467711E-02 0.11680047E+00
       -3 -1    0    0    0  501 0.00000000E+00 0.00000000E+00 0.24867739E+02 0.24867739E+02 0.00000000E+00 0.0000E+00 0.9000E+01
        3 -1    0    0  501    0 0.00000000E+00 0.00000000E+00 -.93838594E+02 0.93838594E+02 0.00000000E+00 0.0000E+00 0.9000E+01
       23  2    1    2    0    0 0.00000000E+00 0.00000000E+00 -.68970856E+02 0.11870633E+03 0.96613739E+02 0.0000E+00 0.0000E+00
      -13  1    3    3    0    0 -.23535828E+00 0.28359151E+02 -.82533416E+02 0.87270050E+02 0.00000000E+00 0.0000E+00 0.9000E+01
       13  1    3    3    0    0 0.23535828E+00 -.28359151E+02 0.13562560E+02 0.31436283E+02 0.00000000E+00 0.0000E+00 0.9000E+01
#aMCatNLO 1  0  0  2  1 0.36770064D+02 0.00000000D+00  -5  5  0 0.00000000D+00 0.00000000D+00 0.00000000D+00 0.00000000D+00 0.00000000D+00
  <mgrwgt>
 0.1478149429D+03    6    2    0
 0.483068693056881D+02 0.000000000000000D+00 0.000000000000000D+00 0.483068693056881D+02
 0.483068693056881D+02 0.000000000000000D+00 0.000000000000000D+00 -.483068693056881D+02
 0.483068693056881D+02 -.235358275104853D+00 0.283591513121030D+02 -.391057126959274D+02
 0.483068693056881D+02 0.235358275104853D+00 -.283591513121030D+02 0.391057126959274D+02
 0.000000000000000D+00 -.000000000000000D+00 -.000000000000000D+00 0.000000000000000D+00
 0.684618472526910D+02 0.000000000000000D+00 0.000000000000000D+00 0.684618472526910D+02
 0.512834846629129D+02 0.000000000000000D+00 0.000000000000000D+00 -.512834846629129D+02
 0.497572153895295D+02 0.660251028677324D+01 0.300488032336842D+02 -.391057126959274D+02
 0.478585433577775D+02 0.694083514806254D+01 -.267022136595315D+02 0.391057126959274D+02
 0.221295731682968D+02 -.135433454348358D+02 -.334658957415263D+01 0.171783625897781D+02
0.234695226165D-01 0.000000000000D+00 0.000000000000D+00 0.539087046685D-01 0.000000000000D+00  5 -3 3 -13 13 21 0 0.38258059D-02 0.14436707D-01 0.80429686D+03 0.93342145D+04 0.93342145D+04 0.12124458D+01  1  2  2  2  5  2        3 0.133685378796D+03
-.854187569469D-03 0.000000000000D+00 -.901291465147D-04 0.539087046685D-01 0.000000000000D+00  5 -3 3 -13 13 21 2 0.38258059D-02 0.14436707D-01 0.80429686D+03 0.93342145D+04 0.93342145D+04 0.12124458D+01  1  2  3  2  5  2        3 -.900260208319D+01
0.720603747463D-03 0.000000000000D+00 0.000000000000D+00 0.539087046685D-01 0.000000000000D+00  5 -3 3 -13 13 21 2 0.38258059D-02 0.14436707D-01 0.80429686D+03 0.93342145D+04 0.93342145D+04 0.12124458D+01  1  2 15  2  5  2        3 0.603393810653D+01
0.537530903431D-02 0.000000000000D+00 0.000000000000D+00 0.539087046685D-01 0.000000000000D+00  5 -3 3 -13 13 21 2 0.38258059D-02 0.21720834D-01 0.13070348D+04 0.95288364D+04 0.95288364D+04 0.12115106D+01  1  2 12  2  5  2        3 0.224176408523D+02
-.266529274602D-02 0.000000000000D+00 0.000000000000D+00 0.539087046685D-01 0.000000000000D+00  5 -3 3 -13 13 21 2 0.38258059D-02 0.14436707D-01 0.80429686D+03 0.93342145D+04 0.93342145D+04 0.12124458D+01  1  2  4  2  5  2        3 -.223176905781D+02
0.259850898623D-03 0.000000000000D+00 0.000000000000D+00 0.539087046685D-01 0.000000000000D+00  5 -3 21 -13 13 -3 2 0.38258059D-02 0.21720834D-01 0.13070348D+04 0.95288364D+04 0.95288364D+04 0.12115106D+01  1  2 12  4  5  2        3 0.169982777749D+02
  </mgrwgt>
  </event>
  <event npLO=' -1 ' npNLO=' 0 '>
  5     66 0.12615437E+02 0.89604701E+02 0.75467711E-02 0.11104839E+00
       -1 -1    0    0    0  501 0.00000000E+00 0.00000000E+00 0.40532944E+01 0.40532944E+01 0.00000000E+00 0.0000E+00 0.9000E+01
        1 -1    0    0  501    0 0.00000000E+00 0.00000000E+00 -.49521460E+03 0.49521460E+03 0.00000000E+00 0.0000E+00 0.9000E+01
       23  2    1    2    0    0 0.00000000E+00 0.00000000E+00 -.49116131E+03 0.49926790E+03 0.89604701E+02 0.0000E+00 0.0000E+00
      -11  1    3    3    0    0 0.70478954E+01 -.96298860E+01 -.48619637E+03 0.48634280E+03 0.00000000E+00 0.0000E+00 0.9000E+01
       11  1    3    3    0    0 -.70478954E+01 0.96298860E+01 -.49649365E+01 0.12925097E+02 0.00000000E+00 0.0000E+00 0.9000E+01
#aMCatNLO 1  0  0  1  1 0.25056488D+03 0.00000000D+00  -5  5  0 0.00000000D+00 0.00000000D+00 0.00000000D+00 0.00000000D+00 0.00000000D+00
  <mgrwgt>
 0.5105941810D+03    3    2    0
 0.448023502641429D+02 0.000000000000000D+00 0.000000000000000D+00 0.448023502641429D+02
 0.448023502641429D+02 0.000000000000000D+00 0.000000000000000D+00 -.448023502641429D+02
 0.448023502641429D+02 0.704789536260380D+01 -.962988595371838D+01 -.431838286476213D+02
 0.448023502641429D+02 -.704789536260380D+01 0.962988595371838D+01 0.431838286476213D+02
 0.000000000000000D+00 0.000000000000000D+00 -.000000000000000D+00 -.000000000000000D+00
 0.822444994911365D+02 0.000000000000000D+00 0.000000000000000D+00 0.822444994911365D+02
 0.278239709835334D+03 0.000000000000000D+00 0.000000000000000D+00 -.278239709835334D+03
 0.565304081469829D+02 -.345268049538633D+02 0.117789527664913D+02 -.431838286476213D+02
 0.815668267341972D+02 -.588945118499306D+02 0.363282347600019D+02 0.431838286476213D+02
 0.222386974445290D+03 0.934213168037940D+02 -.481071875264932D+02 -.195995210344197D+03
0.300443866874D-01 0.000000000000D+00 0.000000000000D+00 0.468357892356D+00 0.000000000000D+00  5 -1 1 -11 11 21 0 0.62358376D-03 0.76186862D-01 0.14240753D+03 0.80290024D+04 0.80290024D+04 0.12193413D+01  1  2  2  1  5  1       -1 0.455251869894D+03
0.188256240146D-02 0.000000000000D+00 -.115378355748D-03 0.468357892356D+00 0.000000000000D+00  5 -1 1 -11 11 21 2 0.62358376D-03 0.76186862D-01 0.14240753D+03 0.80290024D+04 0.80290024D+04 0.12193413D+01  1  2  3  1  5  1       -1 0.319310993546D+02
0.103916593026D-02 0.000000000000D+00 0.000000000000D+00 0.468357892356D+00 0.000000000000D+00  5 -1 1 -11 11 21 2 0.62358376D-03 0.76186862D-01 0.14240753D+03 0.80290024D+04 0.80290024D+04 0.12193413D+01  1  2 15  1  5  1       -1 0.234112117978D+02
  </mgrwgt>
  </event>
  <event npLO=' -1 ' npNLO=' 0 '>
  5     66 0.12615437E+02 0.49449544E+02 0.75467711E-02 0.11572197E+00
       -1 -1    0    0    0  501 0.00000000E+00 0.00000000E+00 0.45459401E+02 0.45459401E+02 0.00000000E+00 0.0000E+00 0.9000E+01
        1 -1    0    0  501    0 0.00000000E+00 0.00000000E+00 -.46005367E+02 0.46005367E+02 0.00000000E+00 0.0000E+00 0.9000E+01
       23  2    1    2    0    0 0.00000000E+00 0.00000000E+00 -.54596656E+00 0.91464768E+02 0.91463138E+02 0.0000E+00 0.0000E+00
      -13  1    3    3    0    0 0.65407522E+01 -.13155397E+02 0.43035184E+02 0.45473871E+02 0.00000000E+00 0.0000E+00 0.9000E+01
       13  1    3    3    0    0 -.65407522E+01 0.13155397E+02 -.43581150E+02 0.45990897E+02 0.00000000E+00 0.0000E+00 0.9000E+01
#aMCatNLO 1  0  0  1  2 0.53805416D+02 0.00000000D+00  -5  5  0 0.00000000D+00 0.00000000D+00 0.00000000D+00 0.00000000D+00 0.00000000D+00
  <mgrwgt>
 0.2361918363D+03    7    2    0
 0.457315690822586D+02 0.000000000000000D+00 0.000000000000000D+00 0.457315690822586D+02
 0.457315690822586D+02 0.000000000000000D+00 0.000000000000000D+00 -.457315690822586D+02
 0.457315690822586D+02 0.654075224820682D+01 -.131553971983653D+02 0.433073953881576D+02
 0.457315690822586D+02 -.654075224820682D+01 0.131553971983653D+02 -.433073953881576D+02
 0.000000000000000D+00 -.000000000000000D+00 0.000000000000000D+00 0.000000000000000D+00
 0.138034267233269D+03 0.000000000000000D+00 0.000000000000000D+00 0.138034267233269D+03
 0.590038527589092D+02 0.000000000000000D+00 0.000000000000000D+00 -.590038527589092D+02
 0.584647821088018D+02 0.295435012406805D+02 -.258801426998647D+02 0.433073953881576D+02
 0.454331843420298D+02 0.135850958837917D+02 0.202210632233561D+01 -.433073953881576D+02
 0.931401535413467D+02 -.431285971244722D+02 0.238580363775290D+02 0.790304144743598D+02
0.259109913193D-01 0.000000000000D+00 0.000000000000D+00 0.183599626034D+01 0.000000000000D+00  5 -1 1 -13 13 21 0 0.69937539D-02 0.70777488D-02 0.21584592D+03 0.83655056D+04 0.83655056D+04 0.12174495D+01  1  2  2  1  5  1       -1 0.277518543604D+03
0.817192200387D-03 0.000000000000D+00 -.995050291868D-04 0.183599626034D+01 0.000000000000D+00  5 -1 1 -13 13 21 2 0.69937539D-02 0.70777488D-02 0.21584592D+03 0.83655056D+04 0.83655056D+04 0.12174495D+01  1  2  3  1  5  1       -1 0.719562456614D+01
0.866772796877D-03 0.000000000000D+00 0.000000000000D+00 0.183599626034D+01 0.000000000000D+00  5 -1 1 -13 13 21 2 0.69937539D-02 0.70777488D-02 0.21584592D+03 0.83655056D+04 0.83655056D+04 0.12174495D+01  1  2 15  1  5  1       -1 0.137598953412D+02
0.120452204118D-01 0.000000000000D+00 0.000000000000D+00 0.183599626034D+01 0.000000000000D+00  5 -1 1 -13 13 21 2 0.27236132D-01 0.70777488D-02 0.26162437D+04 0.10794787D+05 0.10794787D+05 0.12059043D+01  1  2 12  1  5  1       -1 0.246034125760D+02
0.985783096324D-02 0.000000000000D+00 -.896713176403D-02 0.183599626034D+01 0.000000000000D+00  5 -1 1 -13 13 21 2 0.26714927D-01 0.70777488D-02 0.21584592D+03 0.83655056D+04 0.83655056D+04 0.12174495D+01  1  2  5  1  5  1       -1 -.486577376447D+02
0.194731705374D-02 0.000000000000D+00 0.000000000000D+00 0.183599626034D+01 0.000000000000D+00  5 21 1 -13 13 1 2 0.27236132D-01 0.70777488D-02 0.26162437D+04 0.10794787D+05 0.10794787D+05 0.12059043D+01  1  2 12  3  5  1       -1 0.438768081891D+02
0.173784644693D-02 0.000000000000D+00 -.142521221755D-02 0.183599626034D+01 0.000000000000D+00  5 21 1 -13 13 1 2 0.26714927D-01 0.70777488D-02 0.21584592D+03 0.83655056D+04 0.83655056D+04 0.12174495D+01  1  2  5  3  5  1       -1 -.821047103540D+02
  </mgrwgt>
  </event>
  <event npLO=' -1 ' npNLO=' 0 '>
  5     66 0.12615437E+02 0.90341073E+02 0.75467711E-02 0.11530711E+00
       -1 -1    0    0    0  501 0.00000000E+00 0.00000000E+00 0.45897905E+03 0.45897905E+03 0.00000000E+00 0.0000E+00 0.9000E+01
        1 -1    0    0  501    0 0.00000000E+00 0.00000000E+00 -.44454695E+01 0.44454695E+01 0.00000000E+00 0.0000E+00 0.9000E+01
       23  2    1    2    0    0 0.00000000E+00 0.00000000E+00 0.45453358E+03 0.46342452E+03 0.90341073E+02 0.0000E+00 0.0000E+00
      -11  1    3    3    0    0 -.32608634E+02 -.31250602E+02 0.22380926E+03 0.22832107E+03 0.00000000E+00 0.0000E+00 0.9000E+01
       11  1    3    3    0    0 0.32608634E+02 0.31250602E+02 0.23072432E+03 0.23510346E+03 0.00000000E+00 0.0000E+00 0.9000E+01
#aMCatNLO 1  0  0  2  1 0.10000933D+03 0.00000000D+00  -5  5  0 0.00000000D+00 0.00000000D+00 0.00000000D+00 0.00000000D+00 0.00000000D+00
  <mgrwgt>
 0.3065337358D+03    3    2    0
 0.451705367071868D+02 0.000000000000000D+00 0.000000000000000D+00 0.451705367071868D+02
 0.451705367071868D+02 0.000000000000000D+00 0.000000000000000D+00 -.451705367071868D+02
 0.451705367071868D+02 -.326086336407848D+02 -.312506015542770D+02 -.674018539959102D+00
 0.451705367071868D+02 0.326086336407848D+02 0.312506015542770D+02 0.674018539959102D+00
 0.000000000000000D+00 -.000000000000000D+00 -.000000000000000D+00 0.000000000000000D+00
 0.104031582217695D+03 0.000000000000000D+00 0.000000000000000D+00 0.104031582217695D+03
 0.688303107775833D+02 0.000000000000000D+00 0.000000000000000D+00 -.688303107775833D+02
 0.257093741462392D+02 -.212589598600944D+02 -.144420996972740D+02 -.674018539959102D+00
 0.807444354437586D+02 0.527708183954073D+02 0.611101487481256D+02 0.674018539959102D+00
 0.664080834052804D+02 -.315118585353129D+02 -.466680490508516D+02 0.352012714401115D+02
0.487247085180D-01 0.000000000000D+00 0.000000000000D+00 0.536371640168D+00 0.000000000000D+00  5 -1 1 -11 11 21 0 0.70612162D-01 0.68391839D-03 0.20399231D+04 0.81615095D+04 0.81615095D+04 0.12185859D+01  1  2  2  2  5  2        1 0.310836024778D+03
-.270692821020D-02 0.000000000000D+00 -.187115710220D-03 0.536371640168D+00 0.000000000000D+00  5 -1 1 -11 11 21 2 0.70612162D-01 0.68391839D-03 0.20399231D+04 0.81615095D+04 0.81615095D+04 0.12185859D+01  1  2  3  2  5  2        1 -.281008428113D+02
0.251221122153D-02 0.000000000000D+00 0.000000000000D+00 0.536371640168D+00 0.000000000000D+00  5 -1 1 -11 11 21 2 0.70612162D-01 0.68391839D-03 0.20399231D+04 0.81615095D+04 0.81615095D+04 0.12185859D+01  1  2 15  2  5  2        1 0.237985538421D+02
  </mgrwgt>
  </event>
  <event npLO=' -1 ' npNLO=' 0 '>
  5     66 0.12615437E+02 0.91478423E+02 0.75467711E-02 0.11680269E+00
       -3 -1    0    0    0  501 0.00000000E+00 0.00000000E+00 0.27207120E+01 0.27207120E+01 0.00000000E+00 0.0000E+00 0.9000E+01
        3 -1    0    0  501    0 0.00000000E+00 0.00000000E+00 -.76894412E+03 0.76894412E+03 0.00000000E+00 0.0000E+00 0.9000E+01
       23  2    1    2    0    0 0.00000000E+00 0.00000000E+00 -.76622341E+03 0.77166484E+03 0.91478423E+02 0.0000E+00 0.0000E+00
      -11  1    3    3    0    0 -.41386012E+02 0.10197579E+02 -.24315310E+03 0.24686074E+03 0.00000000E+00 0.0000E+00 0.9000E+01
       11  1    3    3    0    0 0.41386012E+02 -.10197579E+02 -.52307031E+03 0.52480410E+03 0.00000000E+00 0.0000E+00 0.9000E+01
#aMCatNLO 1  0  0  1  1 0.12164935D+03 0.00000000D+00  -5  5  0 0.00000000D+00 0.00000000D+00 0.00000000D+00 0.00000000D+00 0.00000000D+00
  <mgrwgt>
 0.6039725933D+02    3    2    0
 0.457392117134572D+02 0.000000000000000D+00 0.000000000000000D+00 0.457392117134572D+02
 0.457392117134572D+02 0.000000000000000D+00 0.000000000000000D+00 -.457392117134572D+02
 0.457392117134572D+02 -.413860124915202D+02 0.101975791656054D+02 0.165916496280931D+02
 0.457392117134572D+02 0.413860124915202D+02 -.101975791656054D+02 -.165916496280931D+02
 0.000000000000000D+00 0.000000000000000D+00 0.000000000000000D+00 -.000000000000000D+00
 0.517396448305275D+02 0.000000000000000D+00 0.000000000000000D+00 0.517396448305275D+02
 0.147349484632413D+03 0.000000000000000D+00 0.000000000000000D+00 -.147349484632413D+03
 0.566302461384336D+02 -.540515345654743D+02 -.318332396018778D+01 0.165916496280931D+02
 0.409731289450799D+02 0.306576459675527D+02 -.215319112457985D+02 -.165916496280931D+02
 0.101485754379427D+03 0.233938885979216D+02 0.247152352059863D+02 -.956098398018858D+02
0.284201390960D-01 0.000000000000D+00 0.000000000000D+00 0.102169551387D+01 0.000000000000D+00  5 -3 3 -11 11 21 0 0.41857107D-03 0.11829910D+00 0.18167927D+04 0.83683020D+04 0.83683020D+04 0.12174341D+01  1  2  2  1  5  1       -3 0.613626798771D+02
-.156934382042D-02 0.000000000000D+00 -.109140817323D-03 0.102169551387D+01 0.000000000000D+00  5 -3 3 -11 11 21 2 0.41857107D-03 0.11829910D+00 0.18167927D+04 0.83683020D+04 0.83683020D+04 0.12174341D+01  1  2  3  1  5  1       -3 -.555558185532D+01
0.143436245776D-02 0.000000000000D+00 0.000000000000D+00 0.102169551387D+01 0.000000000000D+00  5 -3 3 -11 11 21 2 0.41857107D-03 0.11829910D+00 0.18167927D+04 0.83683020D+04 0.83683020D+04 0.12174341D+01  1  2 15  1  5  1       -3 0.459016130700D+01
  </mgrwgt>
  </event>
  <event npLO=' -1 ' npNLO=' 0 '>
  5     66 0.12615437E+02 0.64191096E+02 0.75467711E-02 0.11884016E+00
       -1 -1    0    0    0  501 0.00000000E+00 0.00000000E+00 0.10864345E+03 0.10864345E+03 0.00000000E+00 0.0000E+00 0.9000E+01
        1 -1    0    0  501    0 0.00000000E+00 0.00000000E+00 -.17417840E+02 0.17417840E+02 0.00000000E+00 0.0000E+00 0.9000E+01
       23  2    1    2    0    0 0.00000000E+00 0.00000000E+00 0.91225612E+02 0.12606129E+03 0.87001936E+02 0.0000E+00 0.0000E+00
      -11  1    3    3    0    0 0.54056345E+01 0.37133044E+02 0.13727704E+02 0.39956648E+02 0.00000000E+00 0.0000E+00 0.9000E+01
       11  1    3    3    0    0 -.54056345E+01 -.37133044E+02 0.77497909E+02 0.86104644E+02 0.00000000E+00 0.0000E+00 0.9000E+01
#aMCatNLO 1  0  0  1  2 0.83344813D+01 0.00000000D+00  -5  5  0 0.00000000D+00 0.00000000D+00 0.00000000D+00 0.00000000D+00 0.00000000D+00
  <mgrwgt>
 0.4688358524D+03    8    2    0
 0.435009681497465D+02 0.000000000000000D+00 0.000000000000000D+00 0.435009681497465D+02
 0.435009681497465D+02 0.000000000000000D+00 0.000000000000000D+00 -.435009681497465D+02
 0.435009681497465D+02 0.540563447567379D+01 0.371330442760058D+02 -.220056894615202D+02
 0.435009681497465D+02 -.540563447567379D+01 -.371330442760058D+02 0.220056894615202D+02
 0.000000000000000D+00 -.000000000000000D+00 -.000000000000000D+00 -.000000000000000D+00
 0.438225535550585D+02 0.000000000000000D+00 0.000000000000000D+00 0.438225535550585D+02
 0.476996136038850D+02 0.000000000000000D+00 0.000000000000000D+00 -.476996136038850D+02
 0.444800431617964D+02 0.575303673018934D+01 0.382246836400185D+02 -.220056894615202D+02
 0.425513990626992D+02 -.506584767474528D+01 -.360653348917280D+02 0.220056894615202D+02
 0.449072493444789D+01 -.687189055444055D+00 -.215934874829049D+01 -.387706004882645D+01
0.242822561607D-01 0.000000000000D+00 0.000000000000D+00 0.653018359874D-01 0.000000000000D+00  5 -1 1 -11 11 21 0 0.16714377D-01 0.26796676D-02 0.14080839D+04 0.75693369D+04 0.75693369D+04 0.12220747D+01  1  2  2  1  5  1       -1 0.265084757683D+03
-.131318875847D-02 0.000000000000D+00 -.932502573219D-04 0.653018359874D-01 0.000000000000D+00  5 -1 1 -11 11 21 2 0.16714377D-01 0.26796676D-02 0.14080839D+04 0.75693369D+04 0.75693369D+04 0.12220747D+01  1  2  3  1  5  1       -1 -.239671107214D+02
0.116886572297D-02 0.000000000000D+00 0.000000000000D+00 0.653018359874D-01 0.000000000000D+00  5 -1 1 -11 11 21 2 0.16714377D-01 0.26796676D-02 0.14080839D+04 0.75693369D+04 0.75693369D+04 0.12220747D+01  1  2 15  1  5  1       -1 0.190570578248D+02
0.174445010423D-01 0.000000000000D+00 0.000000000000D+00 0.653018359874D-01 0.000000000000D+00  5 -1 1 -11 11 21 2 0.18463112D-01 0.26796676D-02 0.14953932D+04 0.75744719D+04 0.75744719D+04 0.12220431D+01  1  2 12  1  5  1       -1 0.244533313067D+03
-.518964104658D-02 0.000000000000D+00 0.000000000000D+00 0.653018359874D-01 0.000000000000D+00  5 -1 1 -11 11 21 2 0.16714377D-01 0.26796676D-02 0.14080839D+04 0.75693369D+04 0.75693369D+04 0.12220747D+01  1  2  4  1  5  1       -1 -.846113352208D+02
0.106452010323D-04 0.000000000000D+00 0.000000000000D+00 0.653018359874D-01 0.101614030072D+00  5 -1 1 -11 11 21 2 0.16837940D-01 0.29383050D-02 0.14953932D+04 0.75744719D+04 0.75744719D+04 0.12220431D+01  1  2 11  1  5  1       -1 0.151462601978D+00
0.283006054634D-03 0.000000000000D+00 0.000000000000D+00 0.653018359874D-01 0.000000000000D+00  5 21 1 -11 11 1 2 0.18463112D-01 0.26796676D-02 0.14953932D+04 0.75744719D+04 0.75744719D+04 0.12220431D+01  1  2 12  3  5  1       -1 0.484664648393D+02
0.682554702807D-06 0.000000000000D+00 0.000000000000D+00 0.653018359874D-01 0.143700506934D-03  5 21 1 -11 11 1 2 0.16837940D-01 0.29383050D-02 0.14953932D+04 0.75744719D+04 0.75744719D+04 0.12220431D+01  1  2 11  3  5  1       -1 0.121242375521D+00
  </mgrwgt>
  </event>
  <event npLO=' -1 ' npNLO=' 0 '>
  6     66 0.12615437E+02 0.93765231E+02 0.75467711E-02 0.11613539E+00
       21 -1    0    0  502  501 0.00000000E+00 0.00000000E+00 0.58298803E+01 0.58298803E+01 0.00000000E+00 0.0000E+00 0.9000E+01
        3 -1    0    0  501    0 0.00000000E+00 0.00000000E+00 -.85575216E+03 0.85575216E+03 0.00000000E+00 0.0000E+00 0.9000E+01
       23  2    1    2    0    0 -.37514122E+02 0.94176818E+01 -.56288697E+03 0.57195250E+03 0.93765231E+02 0.0000E+00 0.0000E+00
      -13  1    3    3    0    0 -.60286626E+02 0.18333160E+02 -.23978238E+03 0.24792372E+03 0.00000000E+00 0.0000E+00 0.9000E+01
       13  1    3    3    0    0 0.22772504E+02 -.89154779E+01 -.32310459E+03 0.32402878E+03 0.00000000E+00 0.0000E+00 0.9000E+01
        3  1    1    2  502    0 0.37514122E+02 -.94176818E+01 -.28703531E+03 0.28962955E+03 0.00000000E+00 0.0000E+00 0.9000E+01
#aMCatNLO 2  0  0  1  2 0.61330853D+02 0.00000000D+00  -5  5  0 0.00000000D+00 0.00000000D+00 0.00000000D+00 0.00000000D+00 0.00000000D+00
  <mgrwgt>
 0.2444518321D+02    2    2    0
 0.468826152528420D+02 0.000000000000000D+00 0.000000000000000D+00 0.468826152528420D+02
 0.468826152528420D+02 0.000000000000000D+00 0.000000000000000D+00 -.468826152528420D+02
 0.468826152528420D+02 -.383344512089764D+02 0.128222058193903D+02 0.237495368665963D+02
 0.468826152528420D+02 0.383344512089764D+02 -.128222058193903D+02 -.237495368665963D+02
 0.000000000000000D+00 0.000000000000000D+00 -.000000000000000D+00 -.000000000000000D+00
 0.652274307299531D+02 0.000000000000000D+00 0.000000000000000D+00 0.652274307299531D+02
 0.764851942718699D+02 0.000000000000000D+00 0.000000000000000D+00 -.764851942718699D+02
 0.673396054778522D+02 -.602866255574934D+02 0.183331596683595D+02 0.237495368665963D+02
 0.340897812699969D+02 0.227725040281601D+02 -.891547788656623D+01 -.237495368665963D+02
 0.402832382539738D+02 0.375141215293333D+02 -.941768178179324D+01 -.112577635419168D+02
-.221493041473D-03 0.000000000000D+00 0.000000000000D+00 0.255430908832D+00 0.000000000000D+00  5 21 3 -13 13 3 2 0.14632274D-02 0.80699177D-01 0.39782200D+04 0.10287920D+05 0.10287920D+05 0.12080565D+01  1  2 13  3  5  1       -3 -.568527020445D+01
0.167851777533D-02 0.000000000000D+00 0.000000000000D+00 0.255430908832D+00 0.137975907544D-03  5 21 3 -13 13 3 2 0.89690467D-03 0.13165418D+00 0.39782200D+04 0.10287920D+05 0.10287920D+05 0.12080565D+01  1  2  1  3  5  1       -3 0.301304534162D+02
  </mgrwgt>
  </event>
  <event npLO=' -1 ' npNLO=' 0 '>
  5     66 0.12615437E+02 0.36251824E+02 0.75467711E-02 0.11754180E+00
       -1 -1    0    0    0  501 0.00000000E+00 0.00000000E+00 0.30015003E+03 0.30015003E+03 0.00000000E+00 0.0000E+00 0.9000E+01
        1 -1    0    0  501    0 0.00000000E+00 0.00000000E+00 -.68530666E+01 0.68530666E+01 0.00000000E+00 0.0000E+00 0.9000E+01
       23  2    1    2    0    0 0.00000000E+00 0.00000000E+00 0.29329697E+03 0.30700310E+03 0.90707181E+02 0.0000E+00 0.0000E+00
      -11  1    3    3    0    0 0.67255838E+01 -.19360874E+00 -.51544762E+01 0.84758236E+01 0.00000000E+00 0.0000E+00 0.9000E+01
       11  1    3    3    0    0 -.67255838E+01 0.19360874E+00 0.29845144E+03 0.29852728E+03 0.00000000E+00 0.0000E+00 0.9000E+01
#aMCatNLO 1  0  0  1  2 0.23377192D+02 0.00000000D+00  -5  5  0 0.00000000D+00 0.00000000D+00 0.00000000D+00 0.00000000D+00 0.00000000D+00
  <mgrwgt>
 0.4395560141D+03    7    2    0
 0.453535905177873D+02 0.000000000000000D+00 0.000000000000000D+00 0.453535905177873D+02
 0.453535905177873D+02 0.000000000000000D+00 0.000000000000000D+00 -.453535905177873D+02
 0.453535905177873D+02 0.672558379491487D+01 -.193608736832126D+00 -.448517247285958D+02
 0.453535905177873D+02 -.672558379491487D+01 0.193608736832126D+00 0.448517247285958D+02
 0.000000000000000D+00 -.000000000000000D+00 -.000000000000000D+00 0.000000000000000D+00
 0.169035359551373D+03 0.000000000000000D+00 0.000000000000000D+00 0.169035359551373D+03
 0.478749966946112D+02 0.000000000000000D+00 0.000000000000000D+00 -.478749966946112D+02
 0.479850113888541D+02 0.151127888389408D+02 0.790491748017140D+01 -.448517247285958D+02
 0.455975692523358D+02 0.144709085846134D+01 0.808498847489534D+01 0.448517247285958D+02
 0.123327775604794D+03 -.165598796974021D+02 -.159899059550667D+02 0.121160362856762D+03
0.465508897647D-01 0.000000000000D+00 0.000000000000D+00 0.111908394460D+01 0.000000000000D+00  5 -1 1 -11 11 21 0 0.46176928D-01 0.10543179D-02 0.45270962D+02 0.82277927D+04 0.82277927D+04 0.12182132D+01  1  2  2  1  5  1       -1 0.355838875790D+03
0.886277047665D-02 0.000000000000D+00 -.178767673827D-03 0.111908394460D+01 0.000000000000D+00  5 -1 1 -11 11 21 2 0.46176928D-01 0.10543179D-02 0.45270962D+02 0.82277927D+04 0.82277927D+04 0.12182132D+01  1  2  3  1  5  1       -1 0.899898906877D+02
0.150393905083D-02 0.000000000000D+00 0.000000000000D+00 0.111908394460D+01 0.000000000000D+00  5 -1 1 -11 11 21 2 0.46176928D-01 0.10543179D-02 0.45270962D+02 0.82277927D+04 0.82277927D+04 0.12182132D+01  1  2 15  1  5  1       -1 0.170609121549D+02
0.252502478208D+00 0.000000000000D+00 0.000000000000D+00 0.111908394460D+01 0.000000000000D+00  5 -1 1 -11 11 21 2 0.18167200D+00 0.10543179D-02 0.58294478D+03 0.87576994D+04 0.87576994D+04 0.12153493D+01  1  2 12  1  5  1       -1 0.133795580652D+03
-.165424341319D+00 0.000000000000D+00 -.154005078939D-01 0.111908394460D+01 0.000000000000D+00  5 -1 1 -11 11 21 2 0.17475236D+00 0.10543179D-02 0.45270962D+02 0.82277927D+04 0.82277927D+04 0.12182132D+01  1  2  5  1  5  1       -1 -.148788517401D+03
0.411846452299D-01 0.000000000000D+00 0.000000000000D+00 0.111908394460D+01 0.000000000000D+00  5 21 1 -11 11 1 2 0.18167200D+00 0.10543179D-02 0.58294478D+03 0.87576994D+04 0.87576994D+04 0.12153493D+01  1  2 12  3  5  1       -1 0.148063371561D+03
-.257581013939D-01 0.000000000000D+00 -.242742843108D-02 0.111908394460D+01 0.000000000000D+00  5 21 1 -11 11 1 2 0.17475236D+00 0.10543179D-02 0.45270962D+02 0.82277927D+04 0.82277927D+04 0.12182132D+01  1  2  5  3  5  1       -1 -.156404099324D+03
  </mgrwgt>
  </event>
  <event npLO=' -1 ' npNLO=' 0 '>
  5     66 0.12615437E+02 0.53709004E+02 0.75467711E-02 0.11806990E+00
       -1 -1    0    0    0  501 0.00000000E+00 0.00000000E+00 0.20183421E+03 0.20183421E+03 0.00000000E+00 0.0000E+00 0.9000E+01
        1 -1    0    0  501    0 0.00000000E+00 0.00000000E+00 -.10175759E+02 0.10175759E+02 0.00000000E+00 0.0000E+00 0.9000E+01
       23  2    1    2    0    0 0.00000000E+00 0.00000000E+00 0.19165845E+03 0.21200997E+03 0.90638099E+02 0.0000E+00 0.0000E+00
      -11  1    3    3    0    0 -.11345925E+02 0.30494575E+02 0.16961855E+03 0.17271103E+03 0.00000000E+00 0.0000E+00 0.9000E+01
       11  1    3    3    0    0 0.11345925E+02 -.30494575E+02 0.22039907E+02 0.39298939E+02 0.00000000E+00 0.0000E+00 0.9000E+01
#aMCatNLO 1  0  0  1  2 0.62230945D+01 0.00000000D+00  -5  5  0 0.00000000D+00 0.00000000D+00 0.00000000D+00 0.00000000D+00 0.00000000D+00
  <mgrwgt>
 0.4296745343D+03   11    2    0
 0.453190496000144D+02 0.000000000000000D+00 0.000000000000000D+00 0.453190496000144D+02
 0.453190496000144D+02 0.000000000000000D+00 0.000000000000000D+00 -.453190496000144D+02
 0.453190496000144D+02 -.113459248406986D+02 0.304945752351937D+02 0.315462696270557D+02
 0.453190496000144D+02 0.113459248406986D+02 -.304945752351937D+02 -.315462696270557D+02
 0.000000000000000D+00 0.000000000000000D+00 0.000000000000000D+00 0.000000000000000D+00
 0.617758523192944D+02 0.000000000000000D+00 0.000000000000000D+00 0.617758523192944D+02
 0.459867038780065D+02 0.000000000000000D+00 0.000000000000000D+00 -.459867038780065D+02
 0.435774906026901D+02 -.119658217743821D+02 0.275798779748636D+02 0.315462696270557D+02
 0.472645283098125D+02 0.107003173072121D+02 -.335301613251584D+02 -.315462696270557D+02
 0.169205372847983D+02 0.126550446716999D+01 0.595028335029478D+01 0.157891484412880D+02
0.371236030706D-01 0.000000000000D+00 0.000000000000D+00 0.117663372673D+01 0.000000000000D+00  5 -1 1 -11 11 21 0 0.31051417D-01 0.15655014D-02 0.10586491D+04 0.82152650D+04 0.82152650D+04 0.12182834D+01  1  2  2  1  5  1       -1 0.321440333856D+03
-.178710041524D-02 0.000000000000D+00 -.142564410660D-03 0.117663372673D+01 0.000000000000D+00  5 -1 1 -11 11 21 2 0.31051417D-01 0.15655014D-02 0.10586491D+04 0.82152650D+04 0.82152650D+04 0.12182834D+01  1  2  3  1  5  1       -1 -.267206047521D+02
0.185093701278D-02 0.000000000000D+00 0.000000000000D+00 0.117663372673D+01 0.000000000000D+00  5 -1 1 -11 11 21 2 0.31051417D-01 0.15655014D-02 0.10586491D+04 0.82152650D+04 0.82152650D+04 0.12182834D+01  1  2 15  1  5  1       -1 0.237869377606D+02
0.165763092427D+00 0.000000000000D+00 0.000000000000D+00 0.117663372673D+01 0.000000000000D+00  5 -1 1 -11 11 21 2 0.42950761D-01 0.15655014D-02 0.12724661D+04 0.82522724D+04 0.82522724D+04 0.12180764D+01  1  2 12  1  5  1       -1 0.124512538654D+04
-.194022122256D+00 0.000000000000D+00 0.000000000000D+00 0.117663372673D+01 0.000000000000D+00  5 -1 1 -11 11 21 2 0.31051417D-01 0.15655014D-02 0.10586491D+04 0.82152650D+04 0.82152650D+04 0.12182834D+01  1  2  4  1  5  1       -1 -.249343554883D+04
-.212148807281D+00 0.000000000000D+00 -.174796900328D-01 0.117663372673D+01 0.000000000000D+00  5 -1 1 -11 11 21 2 0.42693260D-01 0.15655014D-02 0.10586491D+04 0.82152650D+04 0.82152650D+04 0.12182834D+01  1  2  5  1  5  1       -1 -.188174070636D+04
0.207935150465D+00 0.000000000000D+00 0.166296193357D-01 0.117663372673D+01 0.000000000000D+00  5 -1 1 -11 11 21 2 0.31051417D-01 0.15655014D-02 0.10586491D+04 0.82152650D+04 0.82152650D+04 0.12182834D+01  1  2  6  1  5  1       -1 0.311013223520D+04
0.327985894362D-01 0.000000000000D+00 0.000000000000D+00 0.117663372673D+01 0.266755867177D+00  5 -1 1 -11 11 21 2 0.42327184D-01 0.15885648D-02 0.12724661D+04 0.82522724D+04 0.82522724D+04 0.12180764D+01  1  2 11  1  5  1       -1 0.247580872796D+03
0.677948361786D-02 0.000000000000D+00 0.000000000000D+00 0.117663372673D+01 0.000000000000D+00  5 21 1 -11 11 1 2 0.42950761D-01 0.15655014D-02 0.12724661D+04 0.82522724D+04 0.82522724D+04 0.12180764D+01  1  2 12  3  5  1       -1 0.496419014362D+03
-.813102698902D-02 0.000000000000D+00 -.705323848300D-03 0.117663372673D+01 0.000000000000D+00  5 21 1 -11 11 1 2 0.42693260D-01 0.15655014D-02 0.10586491D+04 0.82152650D+04 0.82152650D+04 0.12182834D+01  1  2  5  3  5  1       -1 -.709819502566D+03
0.131097456058D-02 0.000000000000D+00 0.000000000000D+00 0.117663372673D+01 0.105566211701D-01  5 21 1 -11 11 1 2 0.42327184D-01 0.15885648D-02 0.12724661D+04 0.82522724D+04 0.82522724D+04 0.12180764D+01  1  2 11  3  5  1       -1 0.969061163038D+02
  </mgrwgt>
  </event>
  <event npLO=' -1 ' npNLO=' 0 '>
  5     66 0.12615437E+02 0.29821857E+02 0.75467711E-02 0.11730283E+00
       -1 -1    0    0    0  501 0.00000000E+00 0.00000000E+00 0.19953420E+01 0.19953420E+01 0.00000000E+00 0.0000E+00 0.9000E+01
        1 -1    0    0  501    0 0.00000000E+00 0.00000000E+00 -.10245244E+04 0.10245244E+04 0.00000000E+00 0.0000E+00 0.9000E+01
       23  2    1    2    0    0 0.00000000E+00 0.00000000E+00 -.10225291E+04 0.10265198E+04 0.90427354E+02 0.0000E+00 0.0000E+00
      -13  1    3    3    0    0 -.36261609E+02 0.21260383E+02 -.32220613E+03 0.32493646E+03 0.00000000E+00 0.0000E+00 0.9000E+01
       13  1    3    3    0    0 0.36261609E+02 -.21260383E+02 -.70032296E+03 0.70158332E+03 0.00000000E+00 0.0000E+00 0.9000E+01
#aMCatNLO 1  0  0  2  1 0.29912174D+02 0.00000000D+00  -5  5  0 0.00000000D+00 0.00000000D+00 0.00000000D+00 0.00000000D+00 0.00000000D+00
  <mgrwgt>
 0.5155956436D+03    7    2    0
 0.452136771965574D+02 0.000000000000000D+00 0.000000000000000D+00 0.452136771965574D+02
 0.452136771965574D+02 0.000000000000000D+00 0.000000000000000D+00 -.452136771965574D+02
 0.452136771965574D+02 -.362616092597118D+02 0.212603826084696D+02 0.166543817319035D+02
 0.452136771965574D+02 0.362616092597118D+02 -.212603826084696D+02 -.166543817319035D+02
 0.000000000000000D+00 -.000000000000000D+00 -.000000000000000D+00 -.000000000000000D+00
 0.501828505679286D+02 0.000000000000000D+00 0.000000000000000D+00 0.501828505679286D+02
 0.121969507179159D+03 0.000000000000000D+00 0.000000000000000D+00 -.121969507179159D+03
 0.498890926665084D+02 -.312940648795766D+02 0.351031998474264D+02 0.166543817319035D+02
 0.449693718367262D+02 0.409721797200022D+02 -.813366224462402D+01 -.166543817319035D+02
 0.772938932438533D+02 -.967811484042555D+01 -.269695376028023D+02 -.717866566112308D+02
0.414984385289D-01 0.000000000000D+00 0.000000000000D+00 0.734693794154D+00 0.000000000000D+00  5 -1 1 -13 13 21 0 0.30697569D-03 0.15761914D+00 0.17669082D+04 0.81771064D+04 0.81771064D+04 0.12184979D+01  1  2  2  2  5  2        1 0.564188482894D+03
-.229056930209D-02 0.000000000000D+00 -.159364930741D-03 0.734693794154D+00 0.000000000000D+00  5 -1 1 -13 13 21 2 0.30697569D-03 0.15761914D+00 0.17669082D+04 0.81771064D+04 0.81771064D+04 0.12184979D+01  1  2  3  2  5  2        1 -.511651605620D+02
0.209157739038D-02 0.000000000000D+00 0.000000000000D+00 0.734693794154D+00 0.000000000000D+00  5 -1 1 -13 13 21 2 0.30697569D-03 0.15761914D+00 0.17669082D+04 0.81771064D+04 0.81771064D+04 0.12184979D+01  1  2 15  2  5  2        1 0.422197817665D+02
0.727225188196D-01 0.000000000000D+00 0.000000000000D+00 0.734693794154D+00 0.000000000000D+00  5 -1 1 -13 13 21 2 0.30697569D-03 0.47192817D+00 0.34487633D+04 0.89981283D+04 0.89981283D+04 0.12141132D+01  1  2 12  2  5  2        1 0.547662970898D+02
-.592339523002D-01 0.000000000000D+00 -.124518812058D-01 0.734693794154D+00 0.000000000000D+00  5 -1 1 -13 13 21 2 0.30697569D-03 0.43469146D+00 0.17669082D+04 0.81771064D+04 0.81771064D+04 0.12184979D+01  1  2  5  2  5  2        1 -.929398986377D+02
0.907065075947D-02 0.000000000000D+00 0.000000000000D+00 0.734693794154D+00 0.000000000000D+00  5 -1 21 -13 13 -1 2 0.30697569D-03 0.47192817D+00 0.34487633D+04 0.89981283D+04 0.89981283D+04 0.12141132D+01  1  2 12  4  5  2        1 0.284744703056D+01
-.602106455911D-02 0.000000000000D+00 -.141455003024D-02 0.734693794154D+00 0.000000000000D+00  5 -1 21 -13 13 -1 2 0.30697569D-03 0.43469146D+00 0.17669082D+04 0.81771064D+04 0.81771064D+04 0.12184979D+01  1  2  5  4  5  2        1 -.432130598430D+01
  </mgrwgt>
  </event>
  <event npLO=' -1 ' npNLO=' 0 '>
  5     66 0.12615437E+02 0.91315673E+02 0.75467711E-02 0.10359476E+00
       -1 -1    0    0    0  501 0.00000000E+00 0.00000000E+00 0.92711723E+02 0.92711723E+02 0.00000000E+00 0.0000E+00 0.9000E+01
        1 -1    0    0  501    0 0.00000000E+00 0.00000000E+00 -.22485161E+02 0.22485161E+02 0.00000000E+00 0.0000E+00 0.9000E+01
       23  2    1    2    0    0 0.00000000E+00 0.00000000E+00 0.70226563E+02 0.11519688E+03 0.91315673E+02 0.0000E+00 0.0000E+00
      -11  1    3    3    0    0 -.66286217E+01 -.22883215E+01 -.21801755E+02 0.22901780E+02 0.00000000E+00 0.0000E+00 0.9000E+01
       11  1    3    3    0    0 0.66286217E+01 0.22883215E+01 0.92028317E+02 0.92295104E+02 0.00000000E+00 0.0000E+00 0.9000E+01
#aMCatNLO 1  0  0  2  1 0.37080783D+03 0.00000000D+00  -5  5  0 0.00000000D+00 0.00000000D+00 0.00000000D+00 0.00000000D+00 0.00000000D+00
  <mgrwgt>
 0.4082507032D+03    3    2    0
 0.456578363387911D+02 0.000000000000000D+00 0.000000000000000D+00 0.456578363387911D+02
 0.456578363387911D+02 0.000000000000000D+00 0.000000000000000D+00 -.456578363387911D+02
 0.456578363387911D+02 -.662862174687689D+01 -.228832153828212D+01 -.451161055213556D+02
 0.456578363387911D+02 0.662862174687689D+01 0.228832153828212D+01 0.451161055213556D+02
 0.000000000000000D+00 -.000000000000000D+00 0.000000000000000D+00 0.000000000000000D+00
 0.329469577895724D+03 0.000000000000000D+00 0.000000000000000D+00 0.329469577895724D+03
 0.166442853080491D+03 0.000000000000000D+00 0.000000000000000D+00 -.166442853080491D+03
 0.107114465421987D+03 0.671246103851652D+02 -.702305660369022D+02 -.451161055213556D+02
 0.122452252457119D+03 0.877864118685293D+02 -.724750787902769D+02 0.451161055213556D+02
 0.266345713097109D+03 -.154911022253695D+03 0.142705644827179D+03 0.163026724815234D+03
0.322674446012D-01 0.000000000000D+00 0.000000000000D+00 0.128674337353D+01 0.000000000000D+00  5 -1 1 -11 11 21 0 0.14263342D-01 0.34592555D-02 0.49175042D+02 0.83385521D+04 0.83385521D+04 0.12175978D+01  1  2  2  2  5  2        1 0.318593543192D+03
0.585756238318D-02 0.000000000000D+00 -.123915483482D-03 0.128674337353D+01 0.000000000000D+00  5 -1 1 -11 11 21 2 0.14263342D-01 0.34592555D-02 0.49175042D+02 0.83385521D+04 0.83385521D+04 0.12175978D+01  1  2  3  2  5  2        1 0.764316242472D+02
0.903510391617D-03 0.000000000000D+00 0.000000000000D+00 0.128674337353D+01 0.000000000000D+00  5 -1 1 -11 11 21 2 0.14263342D-01 0.34592555D-02 0.49175042D+02 0.83385521D+04 0.83385521D+04 0.12175978D+01  1  2 15  2  5  2        1 0.132255357694D+02
  </mgrwgt>
  </event>
  <event npLO=' -1 ' npNLO=' 0 '>
  5     66 0.12615437E+02 0.59139422E+02 0.75467711E-02 0.11763615E+00
       -3 -1    0    0    0  501 0.00000000E+00 0.00000000E+00 0.86006432E+02 0.86006432E+02 0.00000000E+00 0.0000E+00 0.9000E+01
        3 -1    0    0  501    0 0.00000000E+00 0.00000000E+00 -.25140773E+02 0.25140773E+02 0.00000000E+00 0.0000E+00 0.9000E+01
       23  2    1    2    0    0 0.00000000E+00 0.00000000E+00 0.60865659E+02 0.11114720E+03 0.93000391E+02 0.0000E+00 0.0000E+00
      -13  1    3    3    0    0 0.18998194E+02 0.41329472E+02 0.41971311E+02 0.61892225E+02 0.00000000E+00 0.0000E+00 0.9000E+01
       13  1    3    3    0    0 -.18998194E+02 -.41329472E+02 0.18894348E+02 0.49254979E+02 0.00000000E+00 0.0000E+00 0.9000E+01
#aMCatNLO 1  0  0  1  2 0.95570112D+01 0.00000000D+00  -5  5  0 0.00000000D+00 0.00000000D+00 0.00000000D+00 0.00000000D+00 0.00000000D+00
  <mgrwgt>
 0.2074212897D+03    8    2    0
 0.465001954706552D+02 0.000000000000000D+00 0.000000000000000D+00 0.465001954706552D+02
 0.465001954706552D+02 0.000000000000000D+00 0.000000000000000D+00 -.465001954706552D+02
 0.465001954706552D+02 0.189981941112356D+02 0.413294717680175D+02 0.965461354470454D+01
 0.465001954706552D+02 -.189981941112356D+02 -.413294717680175D+02 -.965461354470454D+01
 0.000000000000000D+00 -.000000000000000D+00 0.000000000000000D+00 -.000000000000000D+00
 0.474159700245187D+02 0.000000000000000D+00 0.000000000000000D+00 0.474159700245187D+02
 0.510529527208436D+02 0.000000000000000D+00 0.000000000000000D+00 -.510529527208436D+02
 0.452112067380990D+02 0.197317991735031D+02 0.395157911902834D+02 0.965461354470454D+01
 0.478738667431112D+02 -.182432902702805D+02 -.431958089906170D+02 -.965461354470454D+01
 0.538384926415213D+01 -.148850890322257D+01 0.368001780033357D+01 -.363698269632490D+01
0.203303821483D-01 0.000000000000D+00 0.000000000000D+00 0.317940477977D+00 0.000000000000D+00  5 -3 3 -13 13 21 0 0.13231759D-01 0.38678112D-02 0.20690566D+04 0.86490727D+04 0.86490727D+04 0.12159203D+01  1  2  2  1  5  1       -3 0.130306288683D+03
-.112879904941D-02 0.000000000000D+00 -.780740205619D-04 0.317940477977D+00 0.000000000000D+00  5 -3 3 -13 13 21 2 0.13231759D-01 0.38678112D-02 0.20690566D+04 0.86490727D+04 0.86490727D+04 0.12159203D+01  1  2  3  1  5  1       -3 -.117548561089D+02
0.105492877382D-02 0.000000000000D+00 0.000000000000D+00 0.317940477977D+00 0.000000000000D+00  5 -3 3 -13 13 21 2 0.13231759D-01 0.38678112D-02 0.20690566D+04 0.86490727D+04 0.86490727D+04 0.12159203D+01  1  2 15  1  5  1       -3 0.999661934792D+01
0.145962906032D-01 0.000000000000D+00 0.000000000000D+00 0.317940477977D+00 0.000000000000D+00  5 -3 3 -13 13 21 2 0.14813358D-01 0.38678112D-02 0.22575917D+04 0.86648309D+04 0.86648309D+04 0.12158369D+01  1  2 12  1  5  1       -3 0.114854294467D+03
-.730783369265D-02 0.000000000000D+00 0.000000000000D+00 0.317940477977D+00 0.000000000000D+00  5 -3 3 -13 13 21 2 0.13231759D-01 0.38678112D-02 0.20690566D+04 0.86490727D+04 0.86490727D+04 0.12159203D+01  1  2  4  1  5  1       -3 -.692498237763D+02
0.419665076715D-07 0.000000000000D+00 0.000000000000D+00 0.317940477977D+00 0.159615100054D+00  5 -3 3 -13 13 21 2 0.13492345D-01 0.42465022D-02 0.22575917D+04 0.86648309D+04 0.86648309D+04 0.12158369D+01  1  2 11  1  5  1       -3 0.335602483200D-03
0.263056737430D-03 0.000000000000D+00 0.000000000000D+00 0.317940477977D+00 0.000000000000D+00  5 21 3 -13 13 3 2 0.14813358D-01 0.38678112D-02 0.22575917D+04 0.86648309D+04 0.86648309D+04 0.12158369D+01  1  2 12  3  5  1       -3 0.332682016098D+02
0.177685818013D-08 0.000000000000D+00 0.000000000000D+00 0.317940477977D+00 0.587478758405D-03  5 21 3 -13 13 3 2 0.13492345D-01 0.42465022D-02 0.22575917D+04 0.86648309D+04 0.86648309D+04 0.12158369D+01  1  2 11  3  5  1       -3 0.229894933476D-03
  </mgrwgt>
  </event>
  <event npLO=' -1 ' npNLO=' 0 '>
  5     66 0.12615437E+02 0.59203195E+02 0.75467711E-02 0.11820337E+00
       -1 -1    0    0    0  501 0.00000000E+00 0.00000000E+00 0.55770935E+01 0.55770935E+01 0.00000000E+00 0.0000E+00 0.9000E+01
        1 -1    0    0  501    0 0.00000000E+00 0.00000000E+00 -.36234392E+03 0.36234392E+03 0.00000000E+00 0.0000E+00 0.9000E+01
       23  2    1    2    0    0 0.00000000E+00 0.00000000E+00 -.35676683E+03 0.36792101E+03 0.89907195E+02 0.0000E+00 0.0000E+00
      -13  1    3    3    0    0 -.16470345E+02 -.21372921E+02 -.31247824E+02 0.41285597E+02 0.00000000E+00 0.0000E+00 0.9000E+01
       13  1    3    3    0    0 0.16470345E+02 0.21372921E+02 -.32551900E+03 0.32663541E+03 0.00000000E+00 0.0000E+00 0.9000E+01
#aMCatNLO 1  0  0  1  2 0.79840158D+01 0.00000000D+00  -5  5  0 0.00000000D+00 0.00000000D+00 0.00000000D+00 0.00000000D+00 0.00000000D+00
  <mgrwgt>
 0.4540953411D+02   11    2    0
 0.449535973902644D+02 0.000000000000000D+00 0.000000000000000D+00 0.449535973902644D+02
 0.449535973902644D+02 0.000000000000000D+00 0.000000000000000D+00 -.449535973902644D+02
 0.449535973902644D+02 -.164703454678674D+02 -.213729213566671D+02 0.359548587978984D+02
 0.449535973902644D+02 0.164703454678674D+02 0.213729213566671D+02 -.359548587978984D+02
 0.000000000000000D+00 0.000000000000000D+00 -.000000000000000D+00 0.000000000000000D+00
 0.509476468327089D+02 0.000000000000000D+00 0.000000000000000D+00 0.509476468327089D+02
 0.470710601480123D+02 0.000000000000000D+00 0.000000000000000D+00 -.470710601480123D+02
 0.449150075033472D+02 -.189901770830169D+02 -.190782389702137D+02 0.359548587978984D+02
 0.452511618515957D+02 0.139410883992428D+02 0.236761870238220D+02 -.359548587978984D+02
 0.785253762577826D+01 0.504908868377412D+01 -.459794805360825D+01 0.387658668469668D+01
0.229977212532D-01 0.000000000000D+00 0.000000000000D+00 0.716658130492D+00 0.000000000000D+00  5 -1 1 -13 13 21 0 0.85801439D-03 0.55745218D-01 0.72807405D+03 0.80833037D+04 0.80833037D+04 0.12190301D+01  1  2  2  1  5  1       -1 0.338397617598D+03
-.872921381440D-03 0.000000000000D+00 -.883173050515D-04 0.716658130492D+00 0.000000000000D+00  5 -1 1 -13 13 21 2 0.85801439D-03 0.55745218D-01 0.72807405D+03 0.80833037D+04 0.80833037D+04 0.12190301D+01  1  2  3  1  5  1       -1 -.237359731255D+02
0.867347728190D-03 0.000000000000D+00 0.000000000000D+00 0.716658130492D+00 0.000000000000D+00  5 -1 1 -13 13 21 2 0.85801439D-03 0.55745218D-01 0.72807405D+03 0.80833037D+04 0.80833037D+04 0.12190301D+01  1  2 15  1  5  1       -1 0.189655129147D+02
0.346056904292D-01 0.000000000000D+00 0.000000000000D+00 0.716658130492D+00 0.000000000000D+00  5 -1 1 -13 13 21 2 0.10182250D-02 0.55745218D-01 0.93706938D+03 0.81299381D+04 0.81299381D+04 0.12187647D+01  1  2 12  1  5  1       -1 0.598217920039D+03
-.383420426230D-01 0.000000000000D+00 0.000000000000D+00 0.716658130492D+00 0.000000000000D+00  5 -1 1 -13 13 21 2 0.85801439D-03 0.55745218D-01 0.72807405D+03 0.80833037D+04 0.80833037D+04 0.12190301D+01  1  2  4  1  5  1       -1 -.838390971589D+03
-.683730787762D-01 0.000000000000D+00 -.186754669284D-01 0.716658130492D+00 0.000000000000D+00  5 -1 1 -13 13 21 2 0.10182793D-02 0.55745218D-01 0.72807405D+03 0.80833037D+04 0.80833037D+04 0.12190301D+01  1  2  5  1  5  1       -1 -.195895579532D+04
0.708010612211D-01 0.000000000000D+00 0.184049341596D-01 0.716658130492D+00 0.000000000000D+00  5 -1 1 -13 13 21 2 0.85801439D-03 0.55745218D-01 0.72807405D+03 0.80833037D+04 0.80833037D+04 0.12190301D+01  1  2  6  1  5  1       -1 0.251688785521D+04
0.202200199504D-03 0.000000000000D+00 0.000000000000D+00 0.716658130492D+00 0.122580423550D+00  5 -1 1 -13 13 21 2 0.97242082D-03 0.58371002D-01 0.93706938D+03 0.81299381D+04 0.81299381D+04 0.12187647D+01  1  2 11  1  5  1       -1 0.351110536668D+01
0.877400300422D-03 0.000000000000D+00 0.000000000000D+00 0.716658130492D+00 0.000000000000D+00  5 21 1 -13 13 1 2 0.10182250D-02 0.55745218D-01 0.93706938D+03 0.81299381D+04 0.81299381D+04 0.12187647D+01  1  2 12  3  5  1       -1 0.292660828947D+03
-.156986777605D-02 0.000000000000D+00 -.473618385459D-03 0.716658130492D+00 0.000000000000D+00  5 21 1 -13 13 1 2 0.10182793D-02 0.55745218D-01 0.72807405D+03 0.80833037D+04 0.80833037D+04 0.12190301D+01  1  2  5  3  5  1       -1 -.903831207810D+03
0.499936083602D-05 0.000000000000D+00 0.000000000000D+00 0.716658130492D+00 0.247969479868D-02  5 21 1 -13 13 1 2 0.97242082D-03 0.58371002D-01 0.93706938D+03 0.81299381D+04 0.81299381D+04 0.12187647D+01  1  2 11  3  5  1       -1 0.168264187697D+01
  </mgrwgt>
  </event>
  <event npLO=' -1 ' npNLO=' 0 '>
  5     66 0.12615437E+02 0.66301442E+02 0.75467711E-02 0.11733954E+00
       -1 -1    0    0    0  501 0.00000000E+00 0.00000000E+00 0.23297828E+01 0.23297828E+01 0.00000000E+00 0.0000E+00 0.9000E+01
        1 -1    0    0  501    0 0.00000000E+00 0.00000000E+00 -.89943703E+03 0.89943703E+03 0.00000000E+00 0.0000E+00 0.9000E+01
       23  2    1    2    0    0 0.00000000E+00 0.00000000E+00 -.89710725E+03 0.90176681E+03 0.91553108E+02 0.0000E+00 0.0000E+00
      -11  1    3    3    0    0 0.33071716E+02 -.30509584E+02 -.36560583E+03 0.36836422E+03 0.00000000E+00 0.0000E+00 0.9000E+01
       11  1    3    3    0    0 -.33071716E+02 0.30509584E+02 -.53150142E+03 0.53340260E+03 0.00000000E+00 0.0000E+00 0.9000E+01
#aMCatNLO 1  0  0  1  2 0.33784322D+02 0.00000000D+00  -5  5  0 0.00000000D+00 0.00000000D+00 0.00000000D+00 0.00000000D+00 0.00000000D+00
  <mgrwgt>
 0.6037098212D+03    9    2    0
 0.457765538847530D+02 0.000000000000000D+00 0.000000000000000D+00 0.457765538847530D+02
 0.457765538847530D+02 0.000000000000000D+00 0.000000000000000D+00 -.457765538847530D+02
 0.457765538847530D+02 0.330717157293401D+02 -.305095841723611D+02 0.842138812257375D+01
 0.457765538847530D+02 -.330717157293401D+02 0.305095841723611D+02 -.842138812257375D+01
 0.000000000000000D+00 -.000000000000000D+00 0.000000000000000D+00 0.000000000000000D+00
 0.595735124758581D+02 0.000000000000000D+00 0.000000000000000D+00 0.595735124758581D+02
 0.591481635341343D+02 0.000000000000000D+00 0.000000000000000D+00 -.591481635341343D+02
 0.587311610671704D+02 0.402151690367661D+02 -.419662922085239D+02 0.842138812257375D+01
 0.359298466382060D+02 -.274868088416323D+02 0.215524810923833D+02 -.842138812257375D+01
 0.240606683046161D+02 -.127283601951337D+02 0.204138111161406D+02 0.425348941723775D+00
0.348950560942D-01 0.000000000000D+00 0.000000000000D+00 0.860072428785D+00 0.000000000000D+00  5 -1 1 -11 11 21 0 0.35842812D-03 0.13837493D+00 0.20245731D+04 0.83819715D+04 0.83819715D+04 0.12173591D+01  1  2  2  1  5  1       -1 0.477996282768D+03
-.193791569742D-02 0.000000000000D+00 -.134006203481D-03 0.860072428785D+00 0.000000000000D+00  5 -1 1 -11 11 21 2 0.35842812D-03 0.13837493D+00 0.20245731D+04 0.83819715D+04 0.83819715D+04 0.12173591D+01  1  2  3  1  5  1       -1 -.432047186939D+02
0.183119134745D-02 0.000000000000D+00 0.000000000000D+00 0.860072428785D+00 0.000000000000D+00  5 -1 1 -11 11 21 2 0.35842812D-03 0.13837493D+00 0.20245731D+04 0.83819715D+04 0.83819715D+04 0.12173591D+01  1  2 15  1  5  1       -1 0.371733537812D+02
0.105136053487D-01 0.000000000000D+00 0.000000000000D+00 0.860072428785D+00 0.000000000000D+00  5 -1 1 -11 11 21 2 0.60271271D-03 0.13837493D+00 0.34286970D+04 0.89607064D+04 0.89607064D+04 0.12143031D+01  1  2 12  1  5  1       -1 0.105515711525D+03
-.108786646983D-01 0.000000000000D+00 0.000000000000D+00 0.860072428785D+00 0.000000000000D+00  5 -1 1 -11 11 21 2 0.35842812D-03 0.13837493D+00 0.20245731D+04 0.83819715D+04 0.83819715D+04 0.12173591D+01  1  2  4  1  5  1       -1 -.220837899906D+03
-.170371680109D-01 0.000000000000D+00 -.121973680908D-01 0.860072428785D+00 0.000000000000D+00  5 -1 1 -11 11 21 2 0.61046098D-03 0.13837493D+00 0.20245731D+04 0.83819715D+04 0.83819715D+04 0.12173591D+01  1  2  5  1  5  1       -1 -.339366165732D+03
0.218994089140D-01 0.000000000000D+00 0.106513050963D-01 0.860072428785D+00 0.000000000000D+00  5 -1 1 -11 11 21 2 0.35842812D-03 0.13837493D+00 0.20245731D+04 0.83819715D+04 0.83819715D+04 0.12173591D+01  1  2  6  1  5  1       -1 0.751752554423D+03
0.611411032834D-03 0.000000000000D+00 0.000000000000D+00 0.860072428785D+00 0.000000000000D+00  5 21 1 -11 11 1 2 0.60271271D-03 0.13837493D+00 0.34286970D+04 0.89607064D+04 0.89607064D+04 0.12143031D+01  1  2 12  3  5  1       -1 0.124446752721D+03
-.421429176072D-03 0.000000000000D+00 -.723477246533D-03 0.860072428785D+00 0.000000000000D+00  5 21 1 -11 11 1 2 0.61046098D-03 0.13837493D+00 0.20245731D+04 0.83819715D+04 0.83819715D+04 0.12173591D+01  1  2  5  3  5  1       -1 -.289766049704D+03
  </mgrwgt>
  </event>
  <event npLO=' -1 ' npNLO=' 0 '>
  5     66 0.12615437E+02 0.58358312E+02 0.75467711E-02 0.11778000E+00
       -3 -1    0    0    0  501 0.00000000E+00 0.00000000E+00 0.11143321E+04 0.11143321E+04 0.00000000E+00 0.0000E+00 0.9000E+01
        3 -1    0    0  501    0 0.00000000E+00 0.00000000E+00 -.17538042E+01 0.17538042E+01 0.00000000E+00 0.0000E+00 0.9000E+01
       23  2    1    2    0    0 0.00000000E+00 0.00000000E+00 0.11125783E+04 0.11160859E+04 0.88415390E+02 0.0000E+00 0.0000E+00
      -11  1    3    3    0    0 0.23273726E+02 -.53612920E+01 0.10258844E+04 0.10261624E+04 0.00000000E+00 0.0000E+00 0.9000E+01
       11  1    3    3    0    0 -.23273726E+02 0.53612920E+01 0.86693823E+02 0.89923461E+02 0.00000000E+00 0.0000E+00 0.9000E+01
#aMCatNLO 1  0  0  2  1 0.31979898D+02 0.00000000D+00  -5  5  0 0.00000000D+00 0.00000000D+00 0.00000000D+00 0.00000000D+00 0.00000000D+00
  <mgrwgt>
 0.1263460062D+03    9    2    0
 0.442076949881130D+02 0.000000000000000D+00 0.000000000000000D+00 0.442076949881130D+02
 0.442076949881130D+02 0.000000000000000D+00 0.000000000000000D+00 -.442076949881130D+02
 0.442076949881130D+02 0.232737261580557D+02 -.536129197286911D+01 0.372009477737264D+02
 0.442076949881130D+02 -.232737261580557D+02 0.536129197286911D+01 -.372009477737264D+02
 0.000000000000000D+00 0.000000000000000D+00 -.000000000000000D+00 -.000000000000000D+00
 0.540330663922515D+02 0.000000000000000D+00 0.000000000000000D+00 0.540330663922515D+02
 0.686711949536814D+02 0.000000000000000D+00 0.000000000000000D+00 -.686711949536814D+02
 0.396803456509566D+02 0.136088383494401D+02 0.232783901820573D+01 0.372009477737264D+02
 0.526528051327641D+02 -.344331937010213D+02 0.142394713607374D+02 -.372009477737264D+02
 0.303711105622122D+02 0.208243553515812D+02 -.165673103789431D+02 -.146381285614299D+02
0.920611856797D-01 0.000000000000D+00 0.000000000000D+00 0.233853859347D+00 0.000000000000D+00  5 -3 3 -11 11 21 0 0.17143570D+00 0.26981604D-03 0.57040978D+03 0.78172812D+04 0.78172812D+04 0.12205779D+01  1  2  2  2  5  2        3 0.981032054492D+02
-.275699783704D-02 0.000000000000D+00 -.353539193277D-03 0.233853859347D+00 0.000000000000D+00  5 -3 3 -11 11 21 2 0.17143570D+00 0.26981604D-03 0.57040978D+03 0.78172812D+04 0.78172812D+04 0.12205779D+01  1  2  3  2  5  2        3 -.584624344819D+01
0.344789531989D-02 0.000000000000D+00 0.000000000000D+00 0.233853859347D+00 0.000000000000D+00  5 -3 3 -11 11 21 2 0.17143570D+00 0.26981604D-03 0.57040978D+03 0.78172812D+04 0.78172812D+04 0.12205779D+01  1  2 15  2  5  2        3 0.547383487821D+01
0.477971900454D-01 0.000000000000D+00 0.000000000000D+00 0.233853859347D+00 0.000000000000D+00  5 -3 3 -11 11 21 2 0.17143570D+00 0.51227863D-03 0.15084888D+04 0.85254107D+04 0.85254107D+04 0.12165801D+01  1  2 12  2  5  2        3 0.316300535185D+02
-.505825783920D-01 0.000000000000D+00 0.000000000000D+00 0.233853859347D+00 0.000000000000D+00  5 -3 3 -11 11 21 2 0.17143570D+00 0.26981604D-03 0.57040978D+03 0.78172812D+04 0.78172812D+04 0.12205779D+01  1  2  4  2  5  2        3 -.803042598871D+02
-.114721566190D-01 0.000000000000D+00 -.340972660299D-01 0.233853859347D+00 0.000000000000D+00  5 -3 3 -11 11 21 2 0.17143570D+00 0.51846478D-03 0.57040978D+03 0.78172812D+04 0.78172812D+04 0.12205779D+01  1  2  5  2  5  2        3 -.656231798891D+02
0.326895358498D-01 0.000000000000D+00 0.279261165670D-01 0.233853859347D+00 0.000000000000D+00  5 -3 3 -11 11 21 2 0.17143570D+00 0.26981604D-03 0.57040978D+03 0.78172812D+04 0.78172812D+04 0.12205779D+01  1  2  6  2  5  2        3 0.167955254655D+03
0.333002948210D-02 0.000000000000D+00 0.000000000000D+00 0.233853859347D+00 0.000000000000D+00  5 -3 21 -11 11 -3 2 0.17143570D+00 0.51227863D-03 0.15084888D+04 0.85254107D+04 0.85254107D+04 0.12165801D+01  1  2 12  4  5  2        3 0.476075654020D+02
0.115816084921D-02 0.000000000000D+00 -.241670490524D-02 0.233853859347D+00 0.000000000000D+00  5 -3 21 -11 11 -3 2 0.17143570D+00 0.51846478D-03 0.57040978D+03 0.78172812D+04 0.78172812D+04 0.12205779D+01  1  2  5  4  5  2        3 -.726502244443D+02
  </mgrwgt>
  </event>
  <event npLO=' -1 ' npNLO=' 0 '>
  5     66 0.12615437E+02 0.32863243E+02 0.75467711E-02 0.11806724E+00
       -3 -1    0    0    0  501 0.00000000E+00 0.00000000E+00 0.69402677E+02 0.69402677E+02 0.00000000E+00 0.0000E+00 0.9000E+01
        3 -1    0    0  501    0 0.00000000E+00 0.00000000E+00 -.29677552E+02 0.29677552E+02 0.00000000E+00 0.0000E+00 0.9000E+01
       23  2    1    2    0    0 0.00000000E+00 0.00000000E+00 0.39725125E+02 0.99080229E+02 0.90767871E+02 0.0000E+00 0.0000E+00
      -13  1    3    3    0    0 0.23524182E+02 -.72002188E+01 0.61492661E+02 0.66231243E+02 0.00000000E+00 0.0000E+00 0.9000E+01
       13  1    3    3    0    0 -.23524182E+02 0.72002188E+01 -.21767536E+02 0.32848986E+02 0.00000000E+00 0.0000E+00 0.9000E+01
#aMCatNLO 1  0  0  1  2 0.65246897D+01 0.00000000D+00  -5  5  0 0.00000000D+00 0.00000000D+00 0.00000000D+00 0.00000000D+00 0.00000000D+00
  <mgrwgt>
 0.2698984553D+03    8    2    0
 0.453839352509484D+02 0.000000000000000D+00 0.000000000000000D+00 0.453839352509484D+02
 0.453839352509484D+02 0.000000000000000D+00 0.000000000000000D+00 -.453839352509484D+02
 0.453839352509484D+02 0.235241819992099D+02 -.720021877842177D+01 0.381375312477510D+02
 0.453839352509484D+02 -.235241819992099D+02 0.720021877842177D+01 -.381375312477510D+02
 0.000000000000000D+00 -.000000000000000D+00 -.000000000000000D+00 -.000000000000000D+00
 0.469521603545400D+02 0.000000000000000D+00 0.000000000000000D+00 0.469521603545400D+02
 0.480386978829829D+02 0.000000000000000D+00 0.000000000000000D+00 -.480386978829829D+02
 0.460811262390813D+02 0.251536305588284D+02 -.602443154985910D+01 0.381375312477510D+02
 0.447744003905919D+02 -.219180127389977D+02 0.835920799101138D+01 -.381375312477510D+02
 0.413533160784965D+01 -.323561781983069D+01 -.233477644115228D+01 -.108653752844289D+01
0.277533140378D-01 0.000000000000D+00 0.000000000000D+00 0.147782398110D+01 0.000000000000D+00  5 -3 3 -13 13 21 0 0.10677335D-01 0.45657773D-02 0.60523029D+03 0.82388063D+04 0.82388063D+04 0.12181516D+01  1  2  2  1  5  1       -3 0.195785071708D+03
-.838894187544D-03 0.000000000000D+00 -.106580033521D-03 0.147782398110D+01 0.000000000000D+00  5 -3 3 -13 13 21 2 0.10677335D-01 0.45657773D-02 0.60523029D+03 0.82388063D+04 0.82388063D+04 0.12181516D+01  1  2  3  1  5  1       -3 -.116946855043D+02
0.930535924808D-03 0.000000000000D+00 0.000000000000D+00 0.147782398110D+01 0.000000000000D+00  5 -3 3 -13 13 21 2 0.10677335D-01 0.45657773D-02 0.60523029D+03 0.82388063D+04 0.82388063D+04 0.12181516D+01  1  2 15  1  5  1       -3 0.974093276929D+01
0.284399243416D-01 0.000000000000D+00 0.000000000000D+00 0.147782398110D+01 0.000000000000D+00  5 -3 3 -13 13 21 2 0.11692446D-01 0.45657773D-02 0.71056915D+03 0.82547267D+04 0.82547267D+04 0.12180627D+01  1  2 12  1  5  1       -3 0.257493719060D+03
-.266322213279D-01 0.000000000000D+00 0.000000000000D+00 0.147782398110D+01 0.000000000000D+00  5 -3 3 -13 13 21 2 0.10677335D-01 0.45657773D-02 0.60523029D+03 0.82388063D+04 0.82388063D+04 0.12181516D+01  1  2  4  1  5  1       -3 -.278788460001D+03
0.271470526571D-02 0.000000000000D+00 0.000000000000D+00 0.147782398110D+01 0.735850929234D+00  5 -3 3 -13 13 21 2 0.11046286D-01 0.48328554D-02 0.71056915D+03 0.82547267D+04 0.82547267D+04 0.12180627D+01  1  2 11  1  5  1       -3 0.247391593569D+02
0.434623864247D-03 0.000000000000D+00 0.000000000000D+00 0.147782398110D+01 0.000000000000D+00  5 21 3 -13 13 3 2 0.11692446D-01 0.45657773D-02 0.71056915D+03 0.82547267D+04 0.82547267D+04 0.12180627D+01  1  2 12  3  5  1       -3 0.644480319621D+02
0.545094558531D-04 0.000000000000D+00 0.000000000000D+00 0.147782398110D+01 0.466700659294D-02  5 21 3 -13 13 3 2 0.11046286D-01 0.48328554D-02 0.71056915D+03 0.82547267D+04 0.82547267D+04 0.12180627D+01  1  2 11  3  5  1       -3 0.817468593740D+01
  </mgrwgt>
  </event>
  <event npLO=' -1 ' npNLO=' 0 '>
  5     66 0.12615437E+02 0.73979223E+02 0.75467711E-02 0.11726505E+00
       -1 -1    0    0    0  501 0.00000000E+00 0.00000000E+00 0.11894888E+01 0.11894888E+01 0.00000000E+00 0.0000E+00 0.9000E+01
        1 -1    0    0  501    0 0.00000000E+00 0.00000000E+00 -.17910845E+04 0.17910845E+04 0.00000000E+00 0.0000E+00 0.9000E+01
       23  2    1    2    0    0 0.00000000E+00 0.00000000E+00 -.17898950E+04 0.17922740E+04 0.92314137E+02 0.0000E+00 0.0000E+00
      -13  1    3    3    0    0 0.15479322E+02 0.27759431E+02 -.24511804E+03 0.24717008E+03 0.00000000E+00 0.0000E+00 0.9000E+01
       13  1    3    3    0    0 -.15479322E+02 -.27759431E+02 -.15447769E+04 0.15451039E+04 0.00000000E+00 0.0000E+00 0.9000E+01
#aMCatNLO 1  0  0  2  1 0.24962056D+02 0.00000000D+00  -5  5  0 0.00000000D+00 0.00000000D+00 0.00000000D+00 0.00000000D+00 0.00000000D+00
  <mgrwgt>
 0.1027992857D+04    9    2    0
 0.461570684022388D+02 0.000000000000000D+00 0.000000000000000D+00 0.461570684022388D+02
 0.461570684022388D+02 0.000000000000000D+00 0.000000000000000D+00 -.461570684022388D+02
 0.461570684022388D+02 0.154793217258620D+02 0.277594306336833D+02 0.334705777256673D+02
 0.461570684022388D+02 -.154793217258620D+02 -.277594306336833D+02 -.334705777256673D+02
 0.000000000000000D+00 0.000000000000000D+00 0.000000000000000D+00 -.000000000000000D+00
 0.517705429922334D+02 0.000000000000000D+00 0.000000000000000D+00 0.517705429922334D+02
 0.778969894035960D+02 0.000000000000000D+00 0.000000000000000D+00 -.778969894035960D+02
 0.401186920595364D+02 0.776755454359143D+01 0.207097797112935D+02 0.334705777256673D+02
 0.549435689166215D+02 -.245162119579412D+02 -.360204323022212D+02 -.334705777256673D+02
 0.346052714196716D+02 0.167486574143498D+02 0.153106525909278D+02 -.261264464113626D+02
0.746588701116D-01 0.000000000000D+00 0.000000000000D+00 0.874435862884D+00 0.000000000000D+00  5 -1 1 -13 13 21 0 0.18299828D-03 0.27555146D+00 0.10101954D+04 0.85218999D+04 0.85218999D+04 0.12165990D+01  1  2  2  2  5  2        1 0.632689461452D+03
-.344570666251D-02 0.000000000000D+00 -.286709719361D-03 0.874435862884D+00 0.000000000000D+00  5 -1 1 -13 13 21 2 0.18299828D-03 0.27555146D+00 0.10101954D+04 0.85218999D+04 0.85218999D+04 0.12165990D+01  1  2  3  2  5  2        1 -.508886933778D+02
0.368837545077D-02 0.000000000000D+00 0.000000000000D+00 0.874435862884D+00 0.000000000000D+00  5 -1 1 -13 13 21 2 0.18299828D-03 0.27555146D+00 0.10101954D+04 0.85218999D+04 0.85218999D+04 0.12165990D+01  1  2 15  2  5  2        1 0.462635789615D+02
0.615990519971D-01 0.000000000000D+00 0.000000000000D+00 0.874435862884D+00 0.000000000000D+00  5 -1 1 -13 13 21 2 0.18299828D-03 0.52159050D+00 0.19528735D+04 0.90368335D+04 0.90368335D+04 0.12139176D+01  1  2 12  2  5  2        1 0.478026556542D+02
-.589363855870D-01 0.000000000000D+00 0.000000000000D+00 0.874435862884D+00 0.000000000000D+00  5 -1 1 -13 13 21 2 0.18299828D-03 0.27555146D+00 0.10101954D+04 0.85218999D+04 0.85218999D+04 0.12165990D+01  1  2  4  2  5  2        1 -.739243649325D+03
-.528812006554D-01 0.000000000000D+00 -.214418748279D-01 0.874435862884D+00 0.000000000000D+00  5 -1 1 -13 13 21 2 0.18299828D-03 0.47884849D+00 0.10101954D+04 0.85218999D+04 0.85218999D+04 0.12165990D+01  1  2  5  2  5  2        1 -.136406640973D+03
0.584754883600D-01 0.000000000000D+00 0.185384841433D-01 0.874435862884D+00 0.000000000000D+00  5 -1 1 -13 13 21 2 0.18299828D-03 0.27555146D+00 0.10101954D+04 0.85218999D+04 0.85218999D+04 0.12165990D+01  1  2  6  2  5  2        1 0.122933100428D+04
0.427303370284D-02 0.000000000000D+00 0.000000000000D+00 0.874435862884D+00 0.000000000000D+00  5 -1 21 -13 13 -1 2 0.18299828D-03 0.52159050D+00 0.19528735D+04 0.90368335D+04 0.90368335D+04 0.12139176D+01  1  2 12  4  5  2        1 0.128814918681D+01
-.215889135169D-02 0.000000000000D+00 -.131144817639D-02 0.874435862884D+00 0.000000000000D+00  5 -1 21 -13 13 -1 2 0.18299828D-03 0.47884849D+00 0.10101954D+04 0.85218999D+04 0.85218999D+04 0.12165990D+01  1  2  5  4  5  2        1 -.284300910826D+01
  </mgrwgt>
  </event>
  <event npLO=' -1 ' npNLO=' 0 '>
  6     66 0.12615437E+02 0.91732948E+02 0.75467711E-02 0.11577915E+00
       21 -1    0    0  502  501 0.00000000E+00 0.00000000E+00 0.73021022E+02 0.73021022E+02 0.00000000E+00 0.0000E+00 0.9000E+01
        3 -1    0    0  501    0 0.00000000E+00 0.00000000E+00 -.17503004E+03 0.17503004E+03 0.00000000E+00 0.0000E+00 0.9000E+01
       23  2    1    2    0    0 -.22555408E+02 0.42418350E+02 -.14860394E+03 0.18112462E+03 0.91732948E+02 0.0000E+00 0.0000E+00
      -13  1    3    3    0    0 -.42582396E+02 -.51895489E+01 -.31761599E+02 0.53375940E+02 0.00000000E+00 0.0000E+00 0.9000E+01
       13  1    3    3    0    0 0.20026988E+02 0.47607899E+02 -.11684234E+03 0.12774868E+03 0.00000000E+00 0.0000E+00 0.9000E+01
        3  1    1    2  502    0 0.22555408E+02 -.42418350E+02 0.46594918E+02 0.66926446E+02 0.00000000E+00 0.0000E+00 0.9000E+01
#aMCatNLO 2  0  0  1  2 0.49804796D+02 0.00000000D+00  -5  5  0 0.00000000D+00 0.00000000D+00 0.00000000D+00 0.00000000D+00 0.00000000D+00
  <mgrwgt>
 0.9072549682D+02    2    2    0
 0.458664742340504D+02 0.000000000000000D+00 0.000000000000000D+00 0.458664742340504D+02
 0.458664742340504D+02 0.000000000000000D+00 0.000000000000000D+00 -.458664742340504D+02
 0.458664742340504D+02 -.317661258709965D+02 -.255309374189342D+02 0.210432397772132D+02
 0.458664742340504D+02 0.317661258709965D+02 0.255309374189342D+02 -.210432397772132D+02
 0.000000000000000D+00 0.000000000000000D+00 -.000000000000000D+00 0.000000000000000D+00
 0.232512542562016D+03 0.000000000000000D+00 0.000000000000000D+00 0.232512542562016D+03
 0.549685298878337D+02 0.000000000000000D+00 0.000000000000000D+00 -.549685298878337D+02
 0.477808515299135D+02 -.425823955943505D+02 -.518954892534859D+01 0.210432397772132D+02
 0.557710517445240D+02 0.200269877158982D+02 0.476078988760936D+02 -.210432397772132D+02
 0.183929169175412D+03 0.225554078784523D+02 -.424183499507450D+02 0.177544012674182D+03
-.109921852833D-01 0.000000000000D+00 0.000000000000D+00 0.999099734573D+00 0.000000000000D+00  5 21 3 -13 13 3 2 0.13463356D-01 0.22468831D-01 0.50828700D+04 0.10722997D+05 0.10722997D+05 0.12062022D+01  1  2 13  3  5  1       -3 -.997003312409D+02
0.213612419057D-01 0.000000000000D+00 0.000000000000D+00 0.999099734573D+00 0.220392699966D-02  5 21 3 -13 13 3 2 0.11234003D-01 0.26927699D-01 0.50828700D+04 0.10722997D+05 0.10722997D+05 0.12062022D+01  1  2  1  3  5  1       -3 0.190425828059D+03
  </mgrwgt>
  </event>
  <event npLO=' -1 ' npNLO=' 0 '>
  6     66 0.12615437E+02 0.91197804E+02 0.75467711E-02 0.11789337E+00
       21 -1    0    0  502  501 0.00000000E+00 0.00000000E+00 0.44279794E+02 0.44279794E+02 0.00000000E+00 0.0000E+00 0.9000E+01
        3 -1    0    0  501    0 0.00000000E+00 0.00000000E+00 -.59340563E+02 0.59340563E+02 0.00000000E+00 0.0000E+00 0.9000E+01
       23  2    1    2    0    0 -.99103933E+01 0.14532226E+01 -.96942944E+01 0.92256960E+02 0.91197804E+02 0.0000E+00 0.0000E+00
      -11  1    3    3    0    0 0.27839170E+01 0.25770810E+02 -.42322625E+02 0.49629521E+02 0.00000000E+00 0.0000E+00 0.9000E+01
       11  1    3    3    0    0 -.12694310E+02 -.24317588E+02 0.32628330E+02 0.42627438E+02 0.00000000E+00 0.0000E+00 0.9000E+01
        3  1    1    2  502    0 0.99103933E+01 -.14532226E+01 -.53664747E+01 0.11363397E+02 0.00000000E+00 0.0000E+00 0.9000E+01
#aMCatNLO 2  0  0  1  2 0.17583515D+02 0.00000000D+00  -5  5  0 0.00000000D+00 0.00000000D+00 0.00000000D+00 0.00000000D+00 0.00000000D+00
  <mgrwgt>
 0.1749150064D+02    2    2    0
 0.455989022439173D+02 0.000000000000000D+00 0.000000000000000D+00 0.455989022439173D+02
 0.455989022439173D+02 0.000000000000000D+00 0.000000000000000D+00 -.455989022439173D+02
 0.455989022439173D+02 0.771531676789922D+01 0.250476883669174D+02 -.373141672893164D+02
 0.455989022439173D+02 -.771531676789922D+01 -.250476883669174D+02 0.373141672893164D+02
 0.000000000000000D+00 0.000000000000000D+00 -.000000000000000D+00 -.000000000000000D+00
 0.492050895649480D+02 0.000000000000000D+00 0.000000000000000D+00 0.492050895649480D+02
 0.534007343933684D+02 0.000000000000000D+00 0.000000000000000D+00 -.534007343933684D+02
 0.454338192503305D+02 0.278391703318465D+01 0.257708101760297D+02 -.373141672893164D+02
 0.463123920840704D+02 -.126943103102921D+02 -.243175875818222D+02 0.373141672893164D+02
 0.108596126239154D+02 0.991039327710748D+01 -.145322259420754D+01 -.419564482842040D+01
-.351664165223D-03 0.000000000000D+00 0.000000000000D+00 0.110282090788D+01 0.000000000000D+00  5 21 3 -11 11 3 2 0.79778355D-02 0.77955267D-02 0.10038973D+04 0.84173673D+04 0.84173673D+04 0.12171655D+01  1  2 13  3  5  1       -3 -.439269712277D+02
0.485551567635D-03 0.000000000000D+00 0.000000000000D+00 0.110282090788D+01 0.127511406764D-02  5 21 3 -11 11 3 2 0.68122760D-02 0.91293174D-02 0.10038973D+04 0.84173673D+04 0.84173673D+04 0.12171655D+01  1  2  1  3  5  1       -3 0.614184718641D+02
  </mgrwgt>
  </event>
  <event npLO=' -1 ' npNLO=' 0 '>
  5     66 0.12615437E+02 0.45386511E+02 0.75467711E-02 0.11827737E+00
       -1 -1    0    0    0  501 0.00000000E+00 0.00000000E+00 0.74890088E+02 0.74890088E+02 0.00000000E+00 0.0000E+00 0.9000E+01
        1 -1    0    0  501    0 0.00000000E+00 0.00000000E+00 -.26898494E+02 0.26898494E+02 0.00000000E+00 0.0000E+00 0.9000E+01
       23  2    1    2    0    0 0.00000000E+00 0.00000000E+00 0.47991594E+02 0.10178858E+03 0.89764817E+02 0.0000E+00 0.0000E+00
      -13  1    3    3    0    0 -.12268403E+02 -.29967812E+02 -.11245113E+02 0.34278798E+02 0.00000000E+00 0.0000E+00 0.9000E+01
       13  1    3    3    0    0 0.12268403E+02 0.29967812E+02 0.59236707E+02 0.67509784E+02 0.00000000E+00 0.0000E+00 0.9000E+01
#aMCatNLO 1  0  0  1  2 0.54194700D+01 0.00000000D+00  -5  5  0 0.00000000D+00 0.00000000D+00 0.00000000D+00 0.00000000D+00 0.00000000D+00
  <mgrwgt>
 0.3604939450D+03    8    2    0
 0.448824084717300D+02 0.000000000000000D+00 0.000000000000000D+00 0.448824084717300D+02
 0.448824084717300D+02 0.000000000000000D+00 0.000000000000000D+00 -.448824084717300D+02
 0.448824084717300D+02 -.122684031739855D+02 -.299678117210468D+02 -.310780812540873D+02
 0.448824084717300D+02 0.122684031739855D+02 0.299678117210468D+02 0.310780812540873D+02
 0.000000000000000D+00 0.000000000000000D+00 -.000000000000000D+00 -.000000000000000D+00
 0.454251560616117D+02 0.000000000000000D+00 0.000000000000000D+00 0.454251560616117D+02
 0.474034341632837D+02 0.000000000000000D+00 0.000000000000000D+00 -.474034341632837D+02
 0.441650486700564D+02 -.123845356084751D+02 -.288327533779765D+02 -.310780812540873D+02
 0.456292479975879D+02 0.121503611843224D+02 0.311215337263483D+02 0.310780812540873D+02
 0.303429355725111D+01 0.234174424152711D+00 -.228878034837186D+01 -.197827810167203D+01
0.223516495843D-01 0.000000000000D+00 0.000000000000D+00 0.413634946555D+00 0.000000000000D+00  5 -1 1 -13 13 21 0 0.11521552D-01 0.41382299D-02 0.10485835D+04 0.80577224D+04 0.80577224D+04 0.12191764D+01  1  2  2  1  5  1       -1 0.237081918660D+03
-.108086160874D-02 0.000000000000D+00 -.858362197283D-04 0.413634946555D+00 0.000000000000D+00  5 -1 1 -13 13 21 2 0.11521552D-01 0.41382299D-02 0.10485835D+04 0.80577224D+04 0.80577224D+04 0.12191764D+01  1  2  3  1  5  1       -1 -.198005088509D+02
0.112490166120D-02 0.000000000000D+00 0.000000000000D+00 0.413634946555D+00 0.000000000000D+00  5 -1 1 -13 13 21 2 0.11521552D-01 0.41382299D-02 0.10485835D+04 0.80577224D+04 0.80577224D+04 0.12191764D+01  1  2 15  1  5  1       -1 0.177352178831D+02
0.116999449884D-01 0.000000000000D+00 0.000000000000D+00 0.413634946555D+00 0.000000000000D+00  5 -1 1 -13 13 21 2 0.12315865D-01 0.41382299D-02 0.11252679D+04 0.80630157D+04 0.80630157D+04 0.12191461D+01  1  2 12  1  5  1       -1 0.167137528276D+03
-.119814339023D-01 0.000000000000D+00 0.000000000000D+00 0.413634946555D+00 0.000000000000D+00  5 -1 1 -13 13 21 2 0.11521552D-01 0.41382299D-02 0.10485835D+04 0.80577224D+04 0.80577224D+04 0.12191764D+01  1  2  4  1  5  1       -1 -.188899481739D+03
0.594120609528D-02 0.000000000000D+00 0.000000000000D+00 0.413634946555D+00 0.620782523963D+00  5 -1 1 -13 13 21 2 0.11660878D-01 0.43706725D-02 0.11252679D+04 0.80630157D+04 0.80630157D+04 0.12191461D+01  1  2 11  1  5  1       -1 0.854687048726D+02
0.172908320719D-03 0.000000000000D+00 0.000000000000D+00 0.413634946555D+00 0.000000000000D+00  5 21 1 -13 13 1 2 0.12315865D-01 0.41382299D-02 0.11252679D+04 0.80630157D+04 0.80630157D+04 0.12191461D+01  1  2 12  3  5  1       -1 0.330543324846D+02
0.147435811907D-03 0.000000000000D+00 0.000000000000D+00 0.413634946555D+00 0.143960874167D-02  5 21 1 -13 13 1 2 0.11660878D-01 0.43706725D-02 0.11252679D+04 0.80630157D+04 0.80630157D+04 0.12191461D+01  1  2 11  3  5  1       -1 0.287162334597D+02
  </mgrwgt>
  </event>
  <event npLO=' -1 ' npNLO=' 0 '>
  5     66 0.12615437E+02 0.89602571E+02 0.75467711E-02 0.11831568E+00
       -1 -1    0    0    0  501 0.00000000E+00 0.00000000E+00 0.27679713E+03 0.27679713E+03 0.00000000E+00 0.0000E+00 0.9000E+01
        1 -1    0    0  501    0 0.00000000E+00 0.00000000E+00 -.72513582E+01 0.72513582E+01 0.00000000E+00 0.0000E+00 0.9000E+01
       23  2    1    2    0    0 0.00000000E+00 0.00000000E+00 0.26954577E+03 0.28404849E+03 0.89602571E+02 0.0000E+00 0.0000E+00
      -11  1    3    3    0    0 0.27155238E+02 0.24550376E+02 0.52899303E+02 0.64330896E+02 0.00000000E+00 0.0000E+00 0.9000E+01
       11  1    3    3    0    0 -.27155238E+02 -.24550376E+02 0.21664647E+03 0.21971760E+03 0.00000000E+00 0.0000E+00 0.9000E+01
#aMCatNLO 1  0  0  1  2 0.54194700D+01 0.00000000D+00  -5  5  0 0.00000000D+00 0.00000000D+00 0.00000000D+00 0.00000000D+00 0.00000000D+00
  <mgrwgt>
 0.8130938242D+01    1    2    0
 0.448012853663126D+02 0.000000000000000D+00 0.000000000000000D+00 0.448012853663126D+02
 0.448012853663126D+02 0.000000000000000D+00 0.000000000000000D+00 -.448012853663126D+02
 0.448012853663126D+02 0.271552384046134D+02 0.245503757759266D+02 -.258268706374423D+02
 0.448012853663126D+02 -.271552384046134D+02 -.245503757759266D+02 0.258268706374423D+02
 0.000000000000000D+00 0.000000000000000D+00 0.000000000000000D+00 -.000000000000000D+00
 0.483565007469693D+02 0.000000000000000D+00 0.000000000000000D+00 0.483565007469693D+02
 0.544852109524734D+03 0.000000000000000D+00 0.000000000000000D+00 -.544852109524734D+03
 0.342240551404516D+02 0.159277781558896D+02 0.158292320202295D+02 -.258268706374423D+02
 0.613723206394193D+02 -.422397661427886D+02 -.362675702239211D+02 0.258268706374423D+02
 0.497612234491833D+03 0.263119879868991D+02 0.204383382036916D+02 -.496495608777765D+03
0.673874898856D-03 0.000000000000D+00 0.000000000000D+00 0.331374702253D+00 0.000000000000D+00  5 -1 1 -11 11 21 2 0.42584174D-01 0.11155936D-02 0.13401279D+04 0.80286207D+04 0.80286207D+04 0.12193435D+01  1  2 14  1  5  1       -1 0.813093824195D+01
  </mgrwgt>
  </event>
  <event npLO=' -1 ' npNLO=' 0 '>
  5     66 0.12615437E+02 0.88771480E+02 0.75467711E-02 0.11096840E+00
       -1 -1    0    0    0  501 0.00000000E+00 0.00000000E+00 0.10099884E+03 0.10099884E+03 0.00000000E+00 0.0000E+00 0.9000E+01
        1 -1    0    0  501    0 0.00000000E+00 0.00000000E+00 -.19506104E+02 0.19506104E+02 0.00000000E+00 0.0000E+00 0.9000E+01
       23  2    1    2    0    0 0.00000000E+00 0.00000000E+00 0.81492736E+02 0.12050494E+03 0.88771480E+02 0.0000E+00 0.0000E+00
      -11  1    3    3    0    0 0.12661247E+02 -.33585854E+02 0.76191176E+02 0.84222396E+02 0.00000000E+00 0.0000E+00 0.9000E+01
       11  1    3    3    0    0 -.12661247E+02 0.33585854E+02 0.53015601E+01 0.36282548E+02 0.00000000E+00 0.0000E+00 0.9000E+01
#aMCatNLO 1  0  0  2  2 0.12283648D+03 0.00000000D+00  -5  5  0 0.00000000D+00 0.00000000D+00 0.00000000D+00 0.00000000D+00 0.00000000D+00
  <mgrwgt>
 0.2968876822D+03    5    2    0
 0.443857398667981D+02 0.000000000000000D+00 0.000000000000000D+00 0.443857398667981D+02
 0.443857398667981D+02 0.000000000000000D+00 0.000000000000000D+00 -.443857398667981D+02
 0.443857398667981D+02 0.126612474646982D+02 -.335858537818564D+02 0.261108625270118D+02
 0.443857398667981D+02 -.126612474646982D+02 0.335858537818564D+02 -.261108625270118D+02
 0.000000000000000D+00 0.000000000000000D+00 -.000000000000000D+00 -.000000000000000D+00
 0.889907590022663D+02 0.000000000000000D+00 0.000000000000000D+00 0.889907590022663D+02
 0.214691656478034D+03 0.000000000000000D+00 0.000000000000000D+00 -.214691656478034D+03
 0.467119564571047D+02 -.292565951664294D+02 -.253826983083674D+02 0.261108625270118D+02
 0.920887530382021D+02 -.754588433162378D+02 0.458750941100064D+02 -.261108625270118D+02
 0.164881705984993D+03 0.104715438482667D+03 -.204923958016390D+02 -.125700897475767D+03
0.301658682792D-01 0.000000000000D+00 0.000000000000D+00 0.232407001148D+00 0.000000000000D+00  5 -1 1 -11 11 21 0 0.15538283D-01 0.30009391D-02 0.12883168D+04 0.78803756D+04 0.78803756D+04 0.12202055D+01  1  2  2  2  5  2        1 0.316271775635D+03
-.158398046752D-02 0.000000000000D+00 -.115844877048D-03 0.232407001148D+00 0.000000000000D+00  5 -1 1 -11 11 21 2 0.15538283D-01 0.30009391D-02 0.12883168D+04 0.78803756D+04 0.78803756D+04 0.12202055D+01  1  2  3  2  5  2        1 -.280013998830D+02
0.155432509391D-02 0.000000000000D+00 0.000000000000D+00 0.232407001148D+00 0.000000000000D+00  5 -1 1 -11 11 21 2 0.15538283D-01 0.30009391D-02 0.12883168D+04 0.78803756D+04 0.78803756D+04 0.12202055D+01  1  2 15  2  5  2        1 0.242634419997D+02
0.443439136964D-01 0.000000000000D+00 -.234009560025D-01 0.232407001148D+00 0.000000000000D+00  5 -1 1 -11 11 21 2 0.15538283D-01 0.28381048D-01 0.12883168D+04 0.78803756D+04 0.78803756D+04 0.12202055D+01  1  2  5  2  5  2        1 0.161379896169D+01
0.841580214212D-02 0.000000000000D+00 -.629304803977D-02 0.232407001148D+00 0.000000000000D+00  5 -1 21 -11 11 -1 2 0.15538283D-01 0.28381048D-01 0.12883168D+04 0.78803756D+04 0.78803756D+04 0.12202055D+01  1  2  5  4  5  2        1 -.172599345428D+02
  </mgrwgt>
  </event>
  <event npLO=' -1 ' npNLO=' 0 '>
  6     66 0.12615437E+02 0.91015901E+02 0.75467711E-02 0.11740427E+00
       21 -1    0    0  502  501 0.00000000E+00 0.00000000E+00 0.23329971E+03 0.23329971E+03 0.00000000E+00 0.0000E+00 0.9000E+01
        1 -1    0    0  501    0 0.00000000E+00 0.00000000E+00 -.25203537E+02 0.25203537E+02 0.00000000E+00 0.0000E+00 0.9000E+01
       23  2    1    2    0    0 -.19205766E+02 0.15568917E+02 0.68074079E+02 0.11631521E+03 0.91015901E+02 0.0000E+00 0.0000E+00
      -11  1    3    3    0    0 -.54756072E+02 0.20343504E+02 0.43630082E+02 0.72908639E+02 0.00000000E+00 0.0000E+00 0.9000E+01
       11  1    3    3    0    0 0.35550307E+02 -.47745876E+01 0.24443997E+02 0.43406566E+02 0.00000000E+00 0.0000E+00 0.9000E+01
        1  1    1    2  502    0 0.19205766E+02 -.15568917E+02 0.14002209E+03 0.14218804E+03 0.00000000E+00 0.0000E+00 0.9000E+01
#aMCatNLO 2  0  0  1  2 0.25586686D+02 0.00000000D+00  -5  5  0 0.00000000D+00 0.00000000D+00 0.00000000D+00 0.00000000D+00 0.00000000D+00
  <mgrwgt>
 0.5700244095D+02    2    2    0
 0.455079502708065D+02 0.000000000000000D+00 0.000000000000000D+00 0.455079502708065D+02
 0.455079502708065D+02 0.000000000000000D+00 0.000000000000000D+00 -.455079502708065D+02
 0.455079502708065D+02 -.439854841381238D+02 0.116124600414651D+02 0.118384744390365D+01
 0.455079502708065D+02 0.439854841381238D+02 -.116124600414651D+02 -.118384744390365D+01
 0.000000000000000D+00 0.000000000000000D+00 -.000000000000000D+00 0.000000000000000D+00
 0.119331493613762D+03 0.000000000000000D+00 0.000000000000000D+00 0.119331493613762D+03
 0.492743177468034D+02 0.000000000000000D+00 0.000000000000000D+00 -.492743177468034D+02
 0.584250556507774D+02 -.547560723964321D+02 0.203435043378147D+02 0.118384744390365D+01
 0.358890300526169D+02 0.355503065661918D+02 -.477458756302355D+01 -.118384744390365D+01
 0.742917256571714D+02 0.192057658302403D+02 -.155689167747911D+02 0.700571758669590D+02
-.802070584527D-02 0.000000000000D+00 0.000000000000D+00 0.814452286454D+00 0.000000000000D+00  5 21 1 -11 11 1 2 0.38862809D-01 0.35810864D-02 0.35406120D+04 0.88951468D+04 0.88951468D+04 0.12146380D+01  1  2 13  3  5  1       -1 -.232001125080D+03
0.952818829304D-02 0.000000000000D+00 0.000000000000D+00 0.814452286454D+00 0.206319970141D-02  5 21 1 -11 11 1 2 0.35892263D-01 0.38774673D-02 0.35406120D+04 0.88951468D+04 0.88951468D+04 0.12146380D+01  1  2  1  3  5  1       -1 0.289003566033D+03
  </mgrwgt>
  </event>
  <event npLO=' -1 ' npNLO=' 0 '>
  5     66 0.12615437E+02 0.92247035E+02 0.75467711E-02 0.10646449E+00
       -3 -1    0    0    0  501 0.00000000E+00 0.00000000E+00 0.57114674E+01 0.57114674E+01 0.00000000E+00 0.0000E+00 0.9000E+01
        3 -1    0    0  501    0 0.00000000E+00 0.00000000E+00 -.37247501E+03 0.37247501E+03 0.00000000E+00 0.0000E+00 0.9000E+01
       23  2    1    2    0    0 0.00000000E+00 0.00000000E+00 -.36676355E+03 0.37818648E+03 0.92247035E+02 0.0000E+00 0.0000E+00
      -11  1    3    3    0    0 0.23862875E+02 -.77538426E+01 -.24715947E+02 0.35219837E+02 0.00000000E+00 0.0000E+00 0.9000E+01
       11  1    3    3    0    0 -.23862875E+02 0.77538426E+01 -.34204760E+03 0.34296664E+03 0.00000000E+00 0.0000E+00 0.9000E+01
#aMCatNLO 1  0  0  1  1 0.18993224D+03 0.00000000D+00  -5  5  0 0.00000000D+00 0.00000000D+00 0.00000000D+00 0.00000000D+00 0.00000000D+00
  <mgrwgt>
 0.1068505082D+03    5    2    0
 0.461235175885438D+02 0.000000000000000D+00 0.000000000000000D+00 0.461235175885438D+02
 0.461235175885438D+02 0.000000000000000D+00 0.000000000000000D+00 -.461235175885438D+02
 0.461235175885438D+02 0.238628746471914D+02 -.775384258652616D+01 0.387016797239670D+02
 0.461235175885438D+02 -.238628746471914D+02 0.775384258652616D+01 -.387016797239670D+02
 0.000000000000000D+00 0.000000000000000D+00 -.000000000000000D+00 0.000000000000000D+00
 0.305797123683584D+03 0.000000000000000D+00 0.000000000000000D+00 0.305797123683584D+03
 0.124805312492525D+03 0.000000000000000D+00 0.000000000000000D+00 -.124805312492525D+03
 0.596051378390490D+02 -.886209160888843D+01 0.444568979537617D+02 0.387016797239670D+02
 0.127539574175106D+03 -.776148002241130D+02 0.935118481984072D+02 -.387016797239670D+02
 0.243457724161954D+03 0.864768918330014D+02 -.137968746152169D+03 0.180991811191059D+03
0.282234607764D-01 0.000000000000D+00 0.000000000000D+00 0.103433945872D+01 0.000000000000D+00  5 -3 3 -11 11 21 0 0.87868728D-03 0.57303848D-01 0.62955886D+03 0.85095155D+04 0.85095155D+04 0.12166657D+01  1  2  2  1  5  1       -3 0.101150951006D+03
-.861347474315D-03 0.000000000000D+00 -.108385520789D-03 0.103433945872D+01 0.000000000000D+00  5 -3 3 -11 11 21 2 0.87868728D-03 0.57303848D-01 0.62955886D+03 0.85095155D+04 0.85095155D+04 0.12166657D+01  1  2  3  1  5  1       -3 -.606689976342D+01
0.983388445621D-03 0.000000000000D+00 0.000000000000D+00 0.103433945872D+01 0.000000000000D+00  5 -3 3 -11 11 21 2 0.87868728D-03 0.57303848D-01 0.62955886D+03 0.85095155D+04 0.85095155D+04 0.12166657D+01  1  2 15  1  5  1       -3 0.521707816956D+01
0.125672615873D+00 0.000000000000D+00 -.340410181100D-01 0.103433945872D+01 0.000000000000D+00  5 -3 3 -11 11 21 2 0.15846612D-01 0.57303848D-01 0.62955886D+03 0.85095155D+04 0.85095155D+04 0.12166657D+01  1  2  5  1  5  1       -3 0.265436715621D+01
0.314165530394D-01 0.000000000000D+00 -.107614343269D-01 0.103433945872D+01 0.000000000000D+00  5 21 3 -11 11 3 2 0.15846612D-01 0.57303848D-01 0.62955886D+03 0.85095155D+04 0.85095155D+04 0.12166657D+01  1  2  5  3  5  1       -3 0.389501158205D+01
  </mgrwgt>
  </event>
  <event npLO=' -1 ' npNLO=' 0 '>
  5     66 0.12615437E+02 0.28246794E+02 0.75467711E-02 0.11813867E+00
       -3 -1    0    0    0  501 0.00000000E+00 0.00000000E+00 0.53657042E+01 0.53657042E+01 0.00000000E+00 0.0000E+00 0.9000E+01
        3 -1    0    0  501    0 0.00000000E+00 0.00000000E+00 -.37748676E+03 0.37748676E+03 0.00000000E+00 0.0000E+00 0.9000E+01
       23  2    1    2    0    0 0.00000000E+00 0.00000000E+00 -.37212106E+03 0.38285247E+03 0.90010717E+02 0.0000E+00 0.0000E+00
      -13  1    3    3    0    0 0.20335448E+02 0.15597953E+02 -.34341690E+03 0.34437188E+03 0.00000000E+00 0.0000E+00 0.9000E+01
       13  1    3    3    0    0 -.20335448E+02 -.15597953E+02 -.28704156E+02 0.38480581E+02 0.00000000E+00 0.0000E+00 0.9000E+01
#aMCatNLO 1  0  0  1  2 0.95464077D+01 0.00000000D+00  -5  5  0 0.00000000D+00 0.00000000D+00 0.00000000D+00 0.00000000D+00 0.00000000D+00
  <mgrwgt>
 0.1317396767D+03   11    2    0
 0.450053587027995D+02 0.000000000000000D+00 0.000000000000000D+00 0.450053587027995D+02
 0.450053587027995D+02 0.000000000000000D+00 0.000000000000000D+00 -.450053587027995D+02
 0.450053587027995D+02 0.203354479432617D+02 0.155979529041197D+02 -.369953474658019D+02
 0.450053587027995D+02 -.203354479432617D+02 -.155979529041197D+02 0.369953474658019D+02
 0.000000000000000D+00 -.000000000000000D+00 -.000000000000000D+00 0.000000000000000D+00
 0.721779739561149D+02 0.000000000000000D+00 0.000000000000000D+00 0.721779739561149D+02
 0.460544527433337D+02 0.000000000000000D+00 0.000000000000000D+00 -.460544527433337D+02
 0.478873740715731D+02 0.238077538374172D+02 0.189139027853140D+02 -.369953474658019D+02
 0.426055567085420D+02 -.170605749915308D+02 -.124705456692050D+02 0.369953474658019D+02
 0.277394959193335D+02 -.674717884588641D+01 -.644335711610897D+01 0.261235212127812D+02
0.306426482917D-01 0.000000000000D+00 0.000000000000D+00 0.567805439918D+00 0.000000000000D+00  5 -3 3 -13 13 21 0 0.82549296D-03 0.58074886D-01 0.65682658D+03 0.81019292D+04 0.81019292D+04 0.12189239D+01  1  2  2  1  5  1       -3 0.116065170165D+03
-.104612970018D-02 0.000000000000D+00 -.117675837835D-03 0.567805439918D+00 0.000000000000D+00  5 -3 3 -13 13 21 2 0.82549296D-03 0.58074886D-01 0.65682658D+03 0.81019292D+04 0.81019292D+04 0.12189239D+01  1  2  3  1  5  1       -3 -.755111410492D+01
0.967563103200D-03 0.000000000000D+00 0.000000000000D+00 0.567805439918D+00 0.000000000000D+00  5 -3 3 -13 13 21 2 0.82549296D-03 0.58074886D-01 0.65682658D+03 0.81019292D+04 0.81019292D+04 0.12189239D+01  1  2 15  1  5  1       -3 0.544512788303D+01
0.123859729632D+00 0.000000000000D+00 0.000000000000D+00 0.567805439918D+00 0.000000000000D+00  5 -3 3 -13 13 21 2 0.13547565D-02 0.58074886D-01 0.92623768D+03 0.81889705D+04 0.81889705D+04 0.12184311D+01  1  2 12  1  5  1       -3 0.349117293260D+03
-.114087313310D+00 0.000000000000D+00 0.000000000000D+00 0.567805439918D+00 0.000000000000D+00  5 -3 3 -13 13 21 2 0.82549296D-03 0.58074886D-01 0.65682658D+03 0.81019292D+04 0.81019292D+04 0.12189239D+01  1  2  4  1  5  1       -3 -.642045990332D+03
-.117782645550D+00 0.000000000000D+00 -.111224395060D-01 0.567805439918D+00 0.000000000000D+00  5 -3 3 -13 13 21 2 0.13541778D-02 0.58074886D-01 0.65682658D+03 0.81019292D+04 0.81019292D+04 0.12189239D+01  1  2  5  1  5  1       -3 -.410970827320D+03
0.110686079108D+00 0.000000000000D+00 0.988644935711D-02 0.567805439918D+00 0.000000000000D+00  5 -3 3 -13 13 21 2 0.82549296D-03 0.58074886D-01 0.65682658D+03 0.81019292D+04 0.81019292D+04 0.12189239D+01  1  2  6  1  5  1       -3 0.762691189653D+03
0.820660907517D-06 0.000000000000D+00 0.000000000000D+00 0.567805439918D+00 0.587822437593D-01  5 -3 3 -13 13 21 2 0.13238959D-02 0.59428637D-01 0.92623768D+03 0.81889705D+04 0.81889705D+04 0.12184311D+01  1  2 11  1  5  1       -3 0.228086937275D-02
0.693263716843D-02 0.000000000000D+00 0.000000000000D+00 0.567805439918D+00 0.000000000000D+00  5 21 3 -13 13 3 2 0.13547565D-02 0.58074886D-01 0.92623768D+03 0.81889705D+04 0.81889705D+04 0.12184311D+01  1  2 12  3  5  1       -3 0.391169400854D+03
-.609205575335D-02 0.000000000000D+00 -.622118102916D-03 0.567805439918D+00 0.000000000000D+00  5 21 3 -13 13 3 2 0.13541778D-02 0.58074886D-01 0.65682658D+03 0.81019292D+04 0.81019292D+04 0.12189239D+01  1  2  5  3  5  1       -3 -.432185417480D+03
0.459812732360D-07 0.000000000000D+00 0.000000000000D+00 0.567805439918D+00 0.326030257518D-02  5 21 3 -13 13 3 2 0.13238959D-02 0.59428637D-01 0.92623768D+03 0.81889705D+04 0.81889705D+04 0.12184311D+01  1  2 11  3  5  1       -3 0.256326987987D-02
  </mgrwgt>
  </event>
  <event npLO=' -1 ' npNLO=' 0 '>
  6     66 0.12615437E+02 0.89237994E+02 0.75467711E-02 0.11654487E+00
       -1 -1    0    0    0  502 0.00000000E+00 0.00000000E+00 0.24201176E+02 0.24201176E+02 0.00000000E+00 0.0000E+00 0.9000E+01
        1 -1    0    0  501    0 0.00000000E+00 0.00000000E+00 -.22918318E+03 0.22918318E+03 0.00000000E+00 0.0000E+00 0.9000E+01
       23  2    1    2    0    0 0.14996573E+02 0.40303276E+02 -.17456019E+03 0.20070857E+03 0.89237994E+02 0.0000E+00 0.0000E+00
      -11  1    3    3    0    0 -.36530924E+01 0.58519365E+02 -.62671642E+02 0.85823050E+02 0.00000000E+00 0.0000E+00 0.9000E+01
       11  1    3    3    0    0 0.18649666E+02 -.18216089E+02 -.11188855E+03 0.11488552E+03 0.00000000E+00 0.0000E+00 0.9000E+01
       21  1    1    2  501  502 -.14996573E+02 -.40303276E+02 -.30421809E+02 0.52675779E+02 0.00000000E+00 0.0000E+00 0.9000E+01
#aMCatNLO 2  0  0  1  2 0.50778186D+02 0.00000000D+00  -5  5  0 0.00000000D+00 0.00000000D+00 0.00000000D+00 0.00000000D+00 0.00000000D+00
  <mgrwgt>
 0.2907173967D+02    2    2    0
 0.446189969215434D+02 0.000000000000000D+00 0.000000000000000D+00 0.446189969215434D+02
 0.446189969215434D+02 0.000000000000000D+00 0.000000000000000D+00 -.446189969215434D+02
 0.446189969215434D+02 -.122601834885192D+02 0.353878163170891D+02 0.242537676128990D+02
 0.446189969215434D+02 0.122601834885192D+02 -.353878163170891D+02 -.242537676128990D+02
 0.000000000000000D+00 -.000000000000000D+00 -.000000000000000D+00 0.000000000000000D+00
 0.916822513328455D+02 0.000000000000000D+00 0.000000000000000D+00 0.916822513328455D+02
 0.604970127903260D+02 0.000000000000000D+00 0.000000000000000D+00 -.604970127903260D+02
 0.634516065928608D+02 -.365309239812561D+01 0.585193647583893D+02 0.242537676128990D+02
 0.356073192239065D+02 0.186496658126238D+02 -.182160891513552D+02 -.242537676128990D+02
 0.531203383064042D+02 -.149965734144982D+02 -.403032756070341D+02 0.311852385425195D+02
-.653813727338D-02 0.000000000000D+00 0.000000000000D+00 0.316411536693D+00 0.000000000000D+00  5 -1 1 -11 11 21 2 0.50482080D-02 0.26004904D-01 0.40772073D+04 0.98126708D+04 0.98126708D+04 0.12101843D+01  1  2 13  1  5  1       -1 -.308470866442D+02
0.120049453610D-01 0.000000000000D+00 0.000000000000D+00 0.316411536693D+00 0.162542894599D-02  5 -1 1 -11 11 21 2 0.37232578D-02 0.35258950D-01 0.40772073D+04 0.98126708D+04 0.98126708D+04 0.12101843D+01  1  2  1  1  5  1       -1 0.599188263188D+02
  </mgrwgt>
  </event>
  <event npLO=' -1 ' npNLO=' 0 '>
  6     66 0.12615437E+02 0.91213375E+02 0.75467711E-02 0.11799169E+00
       21 -1    0    0  502  501 0.00000000E+00 0.00000000E+00 0.42119823E+02 0.42119823E+02 0.00000000E+00 0.0000E+00 0.9000E+01
        3 -1    0    0  501    0 0.00000000E+00 0.00000000E+00 -.65634376E+02 0.65634376E+02 0.00000000E+00 0.0000E+00 0.9000E+01
       23  2    1    2    0    0 0.20217084E+01 -.99285526E+00 -.74635430E+01 0.91545931E+02 0.91213375E+02 0.0000E+00 0.0000E+00
      -13  1    3    3    0    0 -.25976585E+02 -.28629997E+02 -.27456251E+02 0.47416299E+02 0.00000000E+00 0.0000E+00 0.9000E+01
       13  1    3    3    0    0 0.27998293E+02 0.27637142E+02 0.19992708E+02 0.44129632E+02 0.00000000E+00 0.0000E+00 0.9000E+01
        3  1    1    2  502    0 -.20217084E+01 0.99285526E+00 -.16051009E+02 0.16208268E+02 0.00000000E+00 0.0000E+00 0.9000E+01
#aMCatNLO 2  0  0  1  2 0.25940332D+02 0.00000000D+00  -5  5  0 0.00000000D+00 0.00000000D+00 0.00000000D+00 0.00000000D+00 0.00000000D+00
  <mgrwgt>
 0.1832684274D+02    2    2    0
 0.456066877276337D+02 0.000000000000000D+00 0.000000000000000D+00 0.456066877276337D+02
 0.456066877276337D+02 0.000000000000000D+00 0.000000000000000D+00 -.456066877276337D+02
 0.456066877276337D+02 -.269842049514119D+02 -.281351578170286D+02 -.236692953684090D+02
 0.456066877276337D+02 0.269842049514119D+02 0.281351578170286D+02 0.236692953684090D+02
 0.000000000000000D+00 -.000000000000000D+00 0.000000000000000D+00 -.000000000000000D+00
 0.457059141143335D+02 0.000000000000000D+00 0.000000000000000D+00 0.457059141143335D+02
 0.604846956977767D+02 0.000000000000000D+00 0.000000000000000D+00 -.604846956977767D+02
 0.453287462361754D+02 -.259765845487125D+02 -.286299973330454D+02 -.236692953684090D+02
 0.459124337674373D+02 0.279982929700852D+02 0.276371420731885D+02 0.236692953684090D+02
 0.149494298084976D+02 -.202170842137273D+01 0.992855259856887D+00 -.147787815834432D+02
-.181822242181D-03 0.000000000000D+00 0.000000000000D+00 0.873677781298D+00 0.000000000000D+00  5 21 3 -13 13 3 2 0.85938972D-02 0.76137924D-02 0.16100803D+04 0.83249529D+04 0.83249529D+04 0.12176729D+01  1  2 13  3  5  1       -3 -.208398863363D+02
0.334578881754D-03 0.000000000000D+00 0.000000000000D+00 0.873677781298D+00 0.690298345003D-03  5 21 3 -13 13 3 2 0.64799728D-02 0.10097596D-01 0.16100803D+04 0.83249529D+04 0.83249529D+04 0.12176729D+01  1  2  1  3  5  1       -3 0.391667290769D+02
  </mgrwgt>
  </event>
  <event npLO=' -1 ' npNLO=' 0 '>
  5     66 0.12615437E+02 0.58770824E+02 0.75467711E-02 0.11743023E+00
       -1 -1    0    0    0  501 0.00000000E+00 0.00000000E+00 0.98040273E+03 0.98040273E+03 0.00000000E+00 0.0000E+00 0.9000E+01
        1 -1    0    0  501    0 0.00000000E+00 0.00000000E+00 -.22541341E+01 0.22541341E+01 0.00000000E+00 0.0000E+00 0.9000E+01
       23  2    1    2    0    0 0.00000000E+00 0.00000000E+00 0.97814860E+03 0.98265687E+03 0.94020407E+02 0.0000E+00 0.0000E+00
      -11  1    3    3    0    0 0.20319650E+02 0.31355470E+02 0.19090236E+03 0.19452446E+03 0.00000000E+00 0.0000E+00 0.9000E+01
       11  1    3    3    0    0 -.20319650E+02 -.31355470E+02 0.78724624E+03 0.78813241E+03 0.00000000E+00 0.0000E+00 0.9000E+01
#aMCatNLO 1  0  0  2  1 0.76556693D+01 0.00000000D+00  -5  5  0 0.00000000D+00 0.00000000D+00 0.00000000D+00 0.00000000D+00 0.00000000D+00
  <mgrwgt>
 0.3812107067D+03    8    2    0
 0.470102035601369D+02 0.000000000000000D+00 0.000000000000000D+00 0.470102035601369D+02
 0.470102035601369D+02 0.000000000000000D+00 0.000000000000000D+00 -.470102035601369D+02
 0.470102035601369D+02 0.203196501590706D+02 0.313554704314225D+02 -.285290296049950D+02
 0.470102035601369D+02 -.203196501590706D+02 -.313554704314225D+02 0.285290296049950D+02
 0.000000000000000D+00 0.000000000000000D+00 0.000000000000000D+00 0.000000000000000D+00
 0.498008719391940D+02 0.000000000000000D+00 0.000000000000000D+00 0.498008719391940D+02
 0.497764064524369D+02 0.000000000000000D+00 0.000000000000000D+00 -.497764064524369D+02
 0.449448995523654D+02 0.187543936261838D+02 0.292303127811471D+02 -.285290296049950D+02
 0.492305540818579D+02 -.219578569527142D+02 -.335796730634500D+02 0.285290296049950D+02
 0.540182475740767D+01 0.320346332653049D+01 0.434936028230295D+01 0.244654867571230D-01
0.987798963027D-01 0.000000000000D+00 0.000000000000D+00 0.148585824187D+00 0.000000000000D+00  5 -1 1 -11 11 21 0 0.15083119D+00 0.34678986D-03 0.13960537D+04 0.88398370D+04 0.88398370D+04 0.12149228D+01  1  2  2  2  5  2        1 0.283397419418D+03
-.513584146465D-02 0.000000000000D+00 -.379340811146D-03 0.148585824187D+00 0.000000000000D+00  5 -1 1 -11 11 21 2 0.15083119D+00 0.34678986D-03 0.13960537D+04 0.88398370D+04 0.88398370D+04 0.12149228D+01  1  2  3  2  5  2        1 -.247136546216D+02
0.423110119002D-02 0.000000000000D+00 0.000000000000D+00 0.148585824187D+00 0.000000000000D+00  5 -1 1 -11 11 21 2 0.15083119D+00 0.34678986D-03 0.13960537D+04 0.88398370D+04 0.88398370D+04 0.12149228D+01  1  2 15  2  5  2        1 0.179175272738D+02
0.128270344298D+00 0.000000000000D+00 0.000000000000D+00 0.148585824187D+00 0.000000000000D+00  5 -1 1 -11 11 21 2 0.15083119D+00 0.38899374D-03 0.16101305D+04 0.88690161D+04 0.88690161D+04 0.12147723D+01  1  2 12  2  5  2        1 0.465779872503D+03
-.128619891641D+00 0.000000000000D+00 0.000000000000D+00 0.148585824187D+00 0.000000000000D+00  5 -1 1 -11 11 21 2 0.15083119D+00 0.34678986D-03 0.13960537D+04 0.88398370D+04 0.88398370D+04 0.12149228D+01  1  2  4  2  5  2        1 -.544669180184D+03
0.147172353179D-02 0.000000000000D+00 0.000000000000D+00 0.148585824187D+00 0.402635617691D-01  5 -1 1 -11 11 21 2 0.15978499D+00 0.36719588D-03 0.16101305D+04 0.88690161D+04 0.88690161D+04 0.12147723D+01  1  2 11  2  5  2        1 0.487330008564D+01
0.234524569296D-02 0.000000000000D+00 0.000000000000D+00 0.148585824187D+00 0.000000000000D+00  5 -1 21 -11 11 -1 2 0.15083119D+00 0.38899374D-03 0.16101305D+04 0.88690161D+04 0.88690161D+04 0.12147723D+01  1  2 12  4  5  2        1 0.176582162111D+03
0.296021755288D-04 0.000000000000D+00 0.000000000000D+00 0.148585824187D+00 0.402327951643D-03  5 -1 21 -11 11 -1 2 0.15978499D+00 0.36719588D-03 0.16101305D+04 0.88690161D+04 0.88690161D+04 0.12147723D+01  1  2 11  4  5  2        1 0.204326008540D+01
  </mgrwgt>
  </event>
  <event npLO=' -1 ' npNLO=' 0 '>
  5     66 0.12615437E+02 0.50358293E+02 0.75467711E-02 0.11451659E+00
       -1 -1    0    0    0  501 0.00000000E+00 0.00000000E+00 0.62400423E+00 0.62400423E+00 0.00000000E+00 0.0000E+00 0.9000E+01
        1 -1    0    0  501    0 0.00000000E+00 0.00000000E+00 -.33294433E+04 0.33294433E+04 0.00000000E+00 0.0000E+00 0.9000E+01
       23  2    1    2    0    0 0.00000000E+00 0.00000000E+00 -.33288193E+04 0.33300673E+04 0.91161104E+02 0.0000E+00 0.0000E+00
      -13  1    3    3    0    0 -.23522618E+01 -.25434806E+01 -.41924962E+01 0.54386996E+01 0.00000000E+00 0.0000E+00 0.9000E+01
       13  1    3    3    0    0 0.23522618E+01 0.25434806E+01 -.33246268E+04 0.33246286E+04 0.00000000E+00 0.0000E+00 0.9000E+01
#aMCatNLO 1  0  0  1  2 0.73849147D+02 0.00000000D+00  -5  5  0 0.00000000D+00 0.00000000D+00 0.00000000D+00 0.00000000D+00 0.00000000D+00
  <mgrwgt>
 0.3419946882D+03    7    2    0
 0.455805520051973D+02 0.000000000000000D+00 0.000000000000000D+00 0.455805520051973D+02
 0.455805520051973D+02 0.000000000000000D+00 0.000000000000000D+00 -.455805520051973D+02
 0.455805520051973D+02 -.235226175816197D+01 -.254348056547134D+01 0.454486995670135D+02
 0.455805520051973D+02 0.235226175816197D+01 0.254348056547134D+01 -.454486995670135D+02
 0.000000000000000D+00 -.000000000000000D+00 -.000000000000000D+00 0.000000000000000D+00
 0.135747882844442D+03 0.000000000000000D+00 0.000000000000000D+00 0.135747882844442D+03
 0.686993178826672D+02 0.000000000000000D+00 0.000000000000000D+00 -.686993178826672D+02
 0.533334090740830D+02 0.192504179999986D+02 0.202061782125208D+02 0.454486995670135D+02
 0.582198294732992D+02 0.250221293419461D+02 0.264169887527384D+02 -.454486995670135D+02
 0.928939621797268D+02 -.442725473419448D+02 -.466231669652593D+02 0.670485649617748D+02
0.167085815296D+00 0.000000000000D+00 0.000000000000D+00 0.198724778360D+01 0.000000000000D+00  5 -1 1 -13 13 21 0 0.96000651D-04 0.51222205D+00 0.12002429D+02 0.83103469D+04 0.83103469D+04 0.12177537D+01  1  2  2  1  5  1       -1 0.235911902676D+03
0.656641834831D-01 0.000000000000D+00 -.641653525443D-03 0.198724778360D+01 0.000000000000D+00  5 -1 1 -13 13 21 2 0.96000651D-04 0.51222205D+00 0.12002429D+02 0.83103469D+04 0.83103469D+04 0.12177537D+01  1  2  3  1  5  1       -1 0.128699227671D+03
0.645390481680D-02 0.000000000000D+00 0.000000000000D+00 0.198724778360D+01 0.000000000000D+00  5 -1 1 -13 13 21 2 0.96000651D-04 0.51222205D+00 0.12002429D+02 0.83103469D+04 0.83103469D+04 0.12177537D+01  1  2 15  1  5  1       -1 0.135129979980D+02
0.805267397649D-02 0.000000000000D+00 0.000000000000D+00 0.198724778360D+01 0.000000000000D+00  5 -1 1 -13 13 21 2 0.43092383D-03 0.51222205D+00 0.41337824D+04 0.12444125D+05 0.12444125D+05 0.11996074D+01  1  2 12  1  5  1       -1 0.218892007871D+01
0.603731527897D+00 0.000000000000D+00 -.957162383547D-01 0.198724778360D+01 0.000000000000D+00  5 -1 1 -13 13 21 2 0.74830783D-03 0.51222205D+00 0.12002429D+02 0.83103469D+04 0.83103469D+04 0.12177537D+01  1  2  5  1  5  1       -1 -.295877884210D+01
0.146170714818D-02 0.000000000000D+00 0.000000000000D+00 0.198724778360D+01 0.000000000000D+00  5 21 1 -13 13 1 2 0.43092383D-03 0.51222205D+00 0.41337824D+04 0.12444125D+05 0.12444125D+05 0.11996074D+01  1  2 12  3  5  1       -1 0.831890821558D+01
0.139752457898D+00 0.000000000000D+00 -.238973073638D-01 0.198724778360D+01 0.000000000000D+00  5 21 1 -13 13 1 2 0.74830783D-03 0.51222205D+00 0.12002429D+02 0.83103469D+04 0.83103469D+04 0.12177537D+01  1  2  5  3  5  1       -1 -.436784895533D+02
  </mgrwgt>
  </event>
  <event npLO=' -1 ' npNLO=' 0 '>
  5     66 0.12615437E+02 0.15546598E+02 0.75467711E-02 0.11785940E+00
       -3 -1    0    0    0  501 0.00000000E+00 0.00000000E+00 0.13652576E+03 0.13652576E+03 0.00000000E+00 0.0000E+00 0.9000E+01
        3 -1    0    0  501    0 0.00000000E+00 0.00000000E+00 -.15472500E+02 0.15472500E+02 0.00000000E+00 0.0000E+00 0.9000E+01
       23  2    1    2    0    0 0.00000000E+00 0.00000000E+00 0.12105326E+03 0.15199826E+03 0.91921595E+02 0.0000E+00 0.0000E+00
      -11  1    3    3    0    0 0.36631973E+02 -.24737559E+02 0.39705727E+02 0.59417110E+02 0.00000000E+00 0.0000E+00 0.9000E+01
       11  1    3    3    0    0 -.36631973E+02 0.24737559E+02 0.81347534E+02 0.92581151E+02 0.00000000E+00 0.0000E+00 0.9000E+01
#aMCatNLO 1  0  0  1  2 0.73849147D+02 0.00000000D+00  -5  5  0 0.00000000D+00 0.00000000D+00 0.00000000D+00 0.00000000D+00 0.00000000D+00
  <mgrwgt>
 0.3958650244D+01    1    2    0
 0.459607973127945D+02 0.000000000000000D+00 0.000000000000000D+00 0.459607973127945D+02
 0.459607973127945D+02 0.000000000000000D+00 0.000000000000000D+00 -.459607973127945D+02
 0.459607973127945D+02 0.366319728867587D+02 -.247375590493132D+02 -.125915298646870D+02
 0.459607973127945D+02 -.366319728867587D+02 0.247375590493132D+02 0.125915298646870D+02
 0.000000000000000D+00 0.000000000000000D+00 -.000000000000000D+00 -.000000000000000D+00
 0.531731546187316D+02 0.000000000000000D+00 0.000000000000000D+00 0.531731546187316D+02
 0.857033885114718D+02 0.000000000000000D+00 0.000000000000000D+00 -.857033885114718D+02
 0.347482118307728D+02 0.259197146889542D+02 -.194180326384052D+02 -.125915298646870D+02
 0.613013335851799D+02 -.508685451507286D+02 0.318072002734678D+02 0.125915298646870D+02
 0.428269977142506D+02 0.249488304617745D+02 -.123891676350626D+02 -.325302338927402D+02
0.451304434265D-03 0.000000000000D+00 0.000000000000D+00 0.597372790439D+00 0.000000000000D+00  5 -3 3 -11 11 21 2 0.21003963D-01 0.23803847D-02 0.19538483D+04 0.84495796D+04 0.84495796D+04 0.12169901D+01  1  2 14  1  5  1       -3 0.395865024377D+01
  </mgrwgt>
  </event>
  <event npLO=' -1 ' npNLO=' 0 '>
  5     66 0.12615437E+02 0.50457992E+02 0.75467711E-02 0.11553315E+00
       -1 -1    0    0    0  501 0.00000000E+00 0.00000000E+00 0.15940395E+02 0.15940395E+02 0.00000000E+00 0.0000E+00 0.9000E+01
        1 -1    0    0  501    0 0.00000000E+00 0.00000000E+00 -.16052074E+03 0.16052074E+03 0.00000000E+00 0.0000E+00 0.9000E+01
       23  2    1    2    0    0 0.00000000E+00 0.00000000E+00 -.14458034E+03 0.17646113E+03 0.10116845E+03 0.0000E+00 0.0000E+00
      -11  1    3    3    0    0 0.38441574E+02 -.25796389E+02 -.10784664E+03 0.11736313E+03 0.00000000E+00 0.0000E+00 0.9000E+01
       11  1    3    3    0    0 -.38441574E+02 0.25796389E+02 -.36733708E+02 0.59098000E+02 0.00000000E+00 0.0000E+00 0.9000E+01
#aMCatNLO 1  0  0  1  2 0.31486080D+02 0.00000000D+00  -5  5  0 0.00000000D+00 0.00000000D+00 0.00000000D+00 0.00000000D+00 0.00000000D+00
  <mgrwgt>
 0.1438003814D+03    7    2    0
 0.505842263153433D+02 0.000000000000000D+00 0.000000000000000D+00 0.505842263153433D+02
 0.505842263153433D+02 0.000000000000000D+00 0.000000000000000D+00 -.505842263153433D+02
 0.505842263153433D+02 0.384415736868749D+02 -.257963892136541D+02 -.203851825583218D+02
 0.505842263153433D+02 -.384415736868749D+02 0.257963892136541D+02 0.203851825583218D+02
 0.000000000000000D+00 0.000000000000000D+00 -.000000000000000D+00 0.000000000000000D+00
 0.882510108267800D+02 0.000000000000000D+00 0.000000000000000D+00 0.882510108267800D+02
 0.581288622236045D+02 0.000000000000000D+00 0.000000000000000D+00 -.581288622236045D+02
 0.397676701993446D+02 0.271172164377128D+02 -.207501445252310D+02 -.203851825583218D+02
 0.652835863858981D+02 -.529639971812679D+02 0.322677235957475D+02 0.203851825583218D+02
 0.413286164651419D+02 0.258467807435551D+02 -.115175790705165D+02 0.301221486031755D+02
0.240838268750D-01 0.000000000000D+00 0.000000000000D+00 0.142398924579D-01 0.000000000000D+00  5 -1 1 -11 11 21 0 0.24523684D-02 0.24695498D-01 0.21432083D+04 0.10235056D+05 0.10235056D+05 0.12082877D+01  1  2  2  1  5  1       -1 0.231844542540D+03
-.132521711596D-02 0.000000000000D+00 -.924882366173D-04 0.142398924579D-01 0.000000000000D+00  5 -1 1 -11 11 21 2 0.24523684D-02 0.24695498D-01 0.21432083D+04 0.10235056D+05 0.10235056D+05 0.12082877D+01  1  2  3  1  5  1       -1 -.206574811425D+02
0.125827248415D-02 0.000000000000D+00 0.000000000000D+00 0.142398924579D-01 0.000000000000D+00  5 -1 1 -11 11 21 2 0.24523684D-02 0.24695498D-01 0.21432083D+04 0.10235056D+05 0.10235056D+05 0.12082877D+01  1  2 15  1  5  1       -1 0.176842553585D+02
0.180171486979D-01 0.000000000000D+00 0.000000000000D+00 0.142398924579D-01 0.000000000000D+00  5 -1 1 -11 11 21 2 0.49166241D-02 0.24695498D-01 0.38726702D+04 0.11035767D+05 0.11035767D+05 0.12049201D+01  1  2 12  1  5  1       -1 0.940084631015D+02
-.168253110869D-01 0.000000000000D+00 -.757137619403D-02 0.142398924579D-01 0.000000000000D+00  5 -1 1 -11 11 21 2 0.49052508D-02 0.24695498D-01 0.21432083D+04 0.10235056D+05 0.10235056D+05 0.12082877D+01  1  2  5  1  5  1       -1 -.150233174139D+03
0.135587084050D-02 0.000000000000D+00 0.000000000000D+00 0.142398924579D-01 0.000000000000D+00  5 21 1 -11 11 1 2 0.49166241D-02 0.24695498D-01 0.38726702D+04 0.11035767D+05 0.11035767D+05 0.12049201D+01  1  2 12  3  5  1       -1 0.112091806651D+03
-.807762823574D-03 0.000000000000D+00 -.567936523786D-03 0.142398924579D-01 0.000000000000D+00  5 21 1 -11 11 1 2 0.49052508D-02 0.24695498D-01 0.21432083D+04 0.10235056D+05 0.10235056D+05 0.12082877D+01  1  2  5  3  5  1       -1 -.140938030942D+03
  </mgrwgt>
  </event>
  <event npLO=' -1 ' npNLO=' 0 '>
  5     66 0.12615437E+02 0.66785639E+02 0.75467711E-02 0.11815801E+00
       -3 -1    0    0    0  501 0.00000000E+00 0.00000000E+00 0.38232382E+02 0.38232382E+02 0.00000000E+00 0.0000E+00 0.9000E+01
        3 -1    0    0  501    0 0.00000000E+00 0.00000000E+00 -.53419974E+02 0.53419974E+02 0.00000000E+00 0.0000E+00 0.9000E+01
       23  2    1    2    0    0 0.00000000E+00 0.00000000E+00 -.15187592E+02 0.91652356E+02 0.90385239E+02 0.0000E+00 0.0000E+00
      -11  1    3    3    0    0 -.29460950E+02 0.12472319E+02 0.24773378E+02 0.40462656E+02 0.00000000E+00 0.0000E+00 0.9000E+01
       11  1    3    3    0    0 0.29460950E+02 -.12472319E+02 -.39960969E+02 0.51189700E+02 0.00000000E+00 0.0000E+00 0.9000E+01
#aMCatNLO 1  0  0  2  1 0.19712872D+01 0.00000000D+00  -5  5  0 0.00000000D+00 0.00000000D+00 0.00000000D+00 0.00000000D+00 0.00000000D+00
  <mgrwgt>
 0.2531836798D+03    8    2    0
 0.451926196520135D+02 0.000000000000000D+00 0.000000000000000D+00 0.451926196520135D+02
 0.451926196520135D+02 0.000000000000000D+00 0.000000000000000D+00 -.451926196520135D+02
 0.451926196520135D+02 -.294609500095089D+02 0.124723194121775D+02 0.319196889713762D+02
 0.451926196520135D+02 0.294609500095089D+02 -.124723194121775D+02 -.319196889713762D+02
 0.000000000000000D+00 -.000000000000000D+00 0.000000000000000D+00 0.000000000000000D+00
 0.459238639119033D+02 0.000000000000000D+00 0.000000000000000D+00 0.459238639119033D+02
 0.458105775639972D+02 0.000000000000000D+00 0.000000000000000D+00 -.458105775639972D+02
 0.447834225456899D+02 -.290492784343867D+02 0.119510590877079D+02 0.319196889713762D+02
 0.456116686344421D+02 0.298764110975239D+02 -.129983780342207D+02 -.319196889713762D+02
 0.133935029576848D+01 -.827132663137185D+00 0.104731894651286D+01 0.113286347906094D+00
0.264534260164D-01 0.000000000000D+00 0.000000000000D+00 0.983079324532D+00 0.000000000000D+00  5 -3 3 -11 11 21 0 0.58819050D-02 0.82184575D-02 0.10235063D+04 0.81694915D+04 0.81694915D+04 0.12185409D+01  1  2  2  2  5  2        3 0.192659716588D+03
-.125641197370D-02 0.000000000000D+00 -.101588121250D-03 0.983079324532D+00 0.000000000000D+00  5 -3 3 -11 11 21 2 0.58819050D-02 0.82184575D-02 0.10235063D+04 0.81694915D+04 0.81694915D+04 0.12185409D+01  1  2  3  2  5  2        3 -.158688696888D+02
0.129977532059D-02 0.000000000000D+00 0.000000000000D+00 0.983079324532D+00 0.000000000000D+00  5 -3 3 -11 11 21 2 0.58819050D-02 0.82184575D-02 0.10235063D+04 0.81694915D+04 0.81694915D+04 0.12185409D+01  1  2 15  2  5  2        3 0.140558617068D+02
0.199321675489D-04 0.000000000000D+00 0.000000000000D+00 0.983079324532D+00 0.000000000000D+00  5 -3 3 -11 11 21 2 0.58819050D-02 0.84656336D-02 0.10669272D+04 0.81712725D+04 0.81712725D+04 0.12185308D+01  1  2 12  2  5  2        3 0.205869746520D+00
-.116093505031D+00 0.000000000000D+00 0.000000000000D+00 0.983079324532D+00 0.000000000000D+00  5 -3 3 -11 11 21 2 0.58819050D-02 0.82184575D-02 0.10235063D+04 0.81694915D+04 0.81694915D+04 0.12185409D+01  1  2  4  2  5  2        3 -.125544332618D+04
0.116099287057D+00 0.000000000000D+00 0.000000000000D+00 0.983079324532D+00 0.437202881237D+01  5 -3 3 -11 11 21 2 0.59770778D-02 0.83308356D-02 0.10669272D+04 0.81712725D+04 0.81712725D+04 0.12185308D+01  1  2 11  2  5  2        3 0.119992785757D+04
0.729197543034D-06 0.000000000000D+00 0.000000000000D+00 0.983079324532D+00 0.000000000000D+00  5 -3 21 -11 11 -3 2 0.58819050D-02 0.84656336D-02 0.10669272D+04 0.81712725D+04 0.81712725D+04 0.12185308D+01  1  2 12  4  5  2        3 0.126902485538D+00
0.673812927675D-03 0.000000000000D+00 0.000000000000D+00 0.983079324532D+00 0.111053597951D-01  5 -3 21 -11 11 -3 2 0.59770778D-02 0.83308356D-02 0.10669272D+04 0.81712725D+04 0.81712725D+04 0.12185308D+01  1  2 11  4  5  2        3 0.117519667546D+03
  </mgrwgt>
  </event>
  <event npLO=' -1 ' npNLO=' 0 '>
  5     66 0.12615437E+02 0.35085625E+02 0.75467711E-02 0.11753254E+00
       -1 -1    0    0    0  501 0.00000000E+00 0.00000000E+00 0.24497529E+02 0.24497529E+02 0.00000000E+00 0.0000E+00 0.9000E+01
        1 -1    0    0  501    0 0.00000000E+00 0.00000000E+00 -.86735153E+02 0.86735153E+02 0.00000000E+00 0.0000E+00 0.9000E+01
       23  2    1    2    0    0 0.00000000E+00 0.00000000E+00 -.62237624E+02 0.11123268E+03 0.92191039E+02 0.0000E+00 0.0000E+00
      -13  1    3    3    0    0 0.11848599E+02 0.23759068E+02 0.14345934E+02 0.30177615E+02 0.00000000E+00 0.0000E+00 0.9000E+01
       13  1    3    3    0    0 -.11848599E+02 -.23759068E+02 -.76583558E+02 0.81055067E+02 0.00000000E+00 0.0000E+00 0.9000E+01
#aMCatNLO 1  0  0  1  2 0.18545502D+02 0.00000000D+00  -5  5  0 0.00000000D+00 0.00000000D+00 0.00000000D+00 0.00000000D+00 0.00000000D+00
  <mgrwgt>
 0.3671479868D+03    9    2    0
 0.460955194142799D+02 0.000000000000000D+00 0.000000000000000D+00 0.460955194142799D+02
 0.460955194142799D+02 0.000000000000000D+00 0.000000000000000D+00 -.460955194142799D+02
 0.460955194142799D+02 0.118485987549233D+02 0.237590680589633D+02 0.376817502590662D+02
 0.460955194142799D+02 -.118485987549233D+02 -.237590680589633D+02 -.376817502590662D+02
 0.000000000000000D+00 -.000000000000000D+00 -.000000000000000D+00 0.000000000000000D+00
 0.640430776768568D+02 0.000000000000000D+00 0.000000000000000D+00 0.640430776768568D+02
 0.507004534794029D+02 0.000000000000000D+00 0.000000000000000D+00 -.507004534794029D+02
 0.491406957602603D+02 0.202219294182131D+02 0.242067603743383D+02 0.376817502590662D+02
 0.444909004852849D+02 -.388408603218917D+01 -.233332337900138D+02 -.376817502590662D+02
 0.211119349107146D+02 -.163378433860239D+02 -.873526584324448D+00 0.133426241974538D+02
0.267835540798D-01 0.000000000000D+00 0.000000000000D+00 0.105516391348D+01 0.000000000000D+00  5 -1 1 -13 13 21 0 0.37688506D-02 0.13343870D-01 0.70488261D+03 0.84991876D+04 0.84991876D+04 0.12167214D+01  1  2  2  1  5  1       -1 0.302198310365D+03
-.937315454710D-03 0.000000000000D+00 -.102855899938D-03 0.105516391348D+01 0.000000000000D+00  5 -1 1 -13 13 21 2 0.37688506D-02 0.13343870D-01 0.70488261D+03 0.84991876D+04 0.84991876D+04 0.12167214D+01  1  2  3  1  5  1       -1 -.199338155177D+02
0.919810331702D-03 0.000000000000D+00 0.000000000000D+00 0.105516391348D+01 0.000000000000D+00  5 -1 1 -13 13 21 2 0.37688506D-02 0.13343870D-01 0.70488261D+03 0.84991876D+04 0.84991876D+04 0.12167214D+01  1  2 15  1  5  1       -1 0.153640042832D+02
0.237242583543D-01 0.000000000000D+00 0.000000000000D+00 0.105516391348D+01 0.000000000000D+00  5 -1 1 -13 13 21 2 0.57593773D-02 0.13343870D-01 0.12801159D+04 0.87668758D+04 0.87668758D+04 0.12153014D+01  1  2 12  1  5  1       -1 0.216077401378D+03
-.245730023188D-01 0.000000000000D+00 0.000000000000D+00 0.105516391348D+01 0.000000000000D+00  5 -1 1 -13 13 21 2 0.37688506D-02 0.13343870D-01 0.70488261D+03 0.84991876D+04 0.84991876D+04 0.12167214D+01  1  2  4  1  5  1       -1 -.410453872788D+03
-.222219558336D-01 0.000000000000D+00 -.106521882197D-01 0.105516391348D+01 0.000000000000D+00  5 -1 1 -13 13 21 2 0.57480890D-02 0.13343870D-01 0.70488261D+03 0.84991876D+04 0.84991876D+04 0.12167214D+01  1  2  5  1  5  1       -1 -.445264271518D+03
0.253128369750D-01 0.000000000000D+00 0.976894278936D-02 0.105516391348D+01 0.000000000000D+00  5 -1 1 -13 13 21 2 0.37688506D-02 0.13343870D-01 0.70488261D+03 0.84991876D+04 0.84991876D+04 0.12167214D+01  1  2  6  1  5  1       -1 0.829067653388D+03
0.117907083535D-02 0.000000000000D+00 0.000000000000D+00 0.105516391348D+01 0.000000000000D+00  5 21 1 -13 13 1 2 0.57593773D-02 0.13343870D-01 0.12801159D+04 0.87668758D+04 0.87668758D+04 0.12153014D+01  1  2 12  3  5  1       -1 0.166022421463D+03
-.710012052149D-03 0.000000000000D+00 -.527579694267D-03 0.105516391348D+01 0.000000000000D+00  5 21 1 -13 13 1 2 0.57480890D-02 0.13343870D-01 0.70488261D+03 0.84991876D+04 0.84991876D+04 0.12167214D+01  1  2  5  3  5  1       -1 -.285929844228D+03
  </mgrwgt>
  </event>
  <event npLO=' -1 ' npNLO=' 0 '>
  6     66 0.12615437E+02 0.85315902E+02 0.75467711E-02 0.11567406E+00
       21 -1    0    0  502  501 0.00000000E+00 0.00000000E+00 0.31228863E+01 0.31228863E+01 0.00000000E+00 0.0000E+00 0.9000E+01
        1 -1    0    0  501    0 0.00000000E+00 0.00000000E+00 -.31382792E+04 0.31382792E+04 0.00000000E+00 0.0000E+00 0.9000E+01
       23  2    1    2    0    0 0.39086162E+02 -.45263882E+02 -.27163473E+04 0.27183447E+04 0.85315902E+02 0.0000E+00 0.0000E+00
      -13  1    3    3    0    0 0.47911541E+02 -.10539028E+02 -.22803919E+04 0.22809195E+04 0.00000000E+00 0.0000E+00 0.9000E+01
       13  1    3    3    0    0 -.88253792E+01 -.34724855E+02 -.43595541E+03 0.43742522E+03 0.00000000E+00 0.0000E+00 0.9000E+01
        1  1    1    2  502    0 -.39086162E+02 0.45263882E+02 -.41880902E+03 0.42305737E+03 0.00000000E+00 0.0000E+00 0.9000E+01
#aMCatNLO 2  0  0  1  2 0.65435540D+02 0.00000000D+00  -5  5  0 0.00000000D+00 0.00000000D+00 0.00000000D+00 0.00000000D+00 0.00000000D+00
  <mgrwgt>
 0.8054704544D+02    2    2    0
 0.426579511234535D+02 0.000000000000000D+00 0.000000000000000D+00 0.426579511234535D+02
 0.426579511234535D+02 0.000000000000000D+00 0.000000000000000D+00 -.426579511234535D+02
 0.426579511234535D+02 0.272570215375295D+02 0.133800196552461D+02 -.299621535437430D+02
 0.426579511234535D+02 -.272570215375295D+02 -.133800196552461D+02 0.299621535437430D+02
 0.000000000000000D+00 -.000000000000000D+00 0.000000000000000D+00 0.000000000000000D+00
 0.162895537513663D+03 0.000000000000000D+00 0.000000000000000D+00 0.162895537513663D+03
 0.601642575734522D+02 0.000000000000000D+00 0.000000000000000D+00 -.601642575734522D+02
 0.574831935636936D+02 0.479115413682263D+02 -.105390275178963D+02 -.299621535437430D+02
 0.467058187686336D+02 -.882537924755627D+01 -.347248548306025D+02 0.299621535437430D+02
 0.118870782754788D+03 -.390861621206701D+02 0.452638823484988D+02 0.102731279940210D+03
-.209566569326D-02 0.000000000000D+00 0.000000000000D+00 0.404017893421D-01 0.000000000000D+00  5 21 1 -13 13 1 2 0.67761245D-03 0.34232582D+00 0.52338001D+04 0.10855350D+05 0.10855350D+05 0.12056547D+01  1  2 13  3  5  1       -1 -.460300625847D+02
0.173486034117D-01 0.000000000000D+00 0.000000000000D+00 0.404017893421D-01 0.395861247320D-04  5 21 1 -13 13 1 2 0.48044404D-03 0.48281219D+00 0.52338001D+04 0.10855350D+05 0.10855350D+05 0.12056547D+01  1  2  1  3  5  1       -1 0.126577108024D+03
  </mgrwgt>
  </event>
  <event npLO=' -1 ' npNLO=' 0 '>
  5     66 0.12615437E+02 0.31283139E+02 0.75467711E-02 0.11785634E+00
       -1 -1    0    0    0  501 0.00000000E+00 0.00000000E+00 0.26128774E+03 0.26128774E+03 0.00000000E+00 0.0000E+00 0.9000E+01
        1 -1    0    0  501    0 0.00000000E+00 0.00000000E+00 -.80873311E+01 0.80873311E+01 0.00000000E+00 0.0000E+00 0.9000E+01
       23  2    1    2    0    0 0.00000000E+00 0.00000000E+00 0.25320041E+03 0.26937507E+03 0.91937381E+02 0.0000E+00 0.0000E+00
      -11  1    3    3    0    0 -.44430993E+01 0.39673655E+02 0.19337431E+03 0.19745218E+03 0.00000000E+00 0.0000E+00 0.9000E+01
       11  1    3    3    0    0 0.44430993E+01 -.39673655E+02 0.59826100E+02 0.71922891E+02 0.00000000E+00 0.0000E+00 0.9000E+01
#aMCatNLO 1  0  0  2  1 0.13819848D+00 0.00000000D+00  -5  5  0 0.00000000D+00 0.00000000D+00 0.00000000D+00 0.00000000D+00 0.00000000D+00
  <mgrwgt>
 0.7391143647D+01    1    2    0
 0.459686903382913D+02 0.000000000000000D+00 0.000000000000000D+00 0.459686903382913D+02
 0.459686903382913D+02 0.000000000000000D+00 0.000000000000000D+00 -.459686903382913D+02
 0.459686903382913D+02 -.444309925796002D+01 0.396736550262355D+02 0.227899200801778D+02
 0.459686903382913D+02 0.444309925796002D+01 -.396736550262355D+02 -.227899200801778D+02
 0.000000000000000D+00 0.000000000000000D+00 -.000000000000000D+00 0.000000000000000D+00
 0.739510585992553D+02 0.000000000000000D+00 0.000000000000000D+00 0.739510585992553D+02
 0.537090446813871D+02 0.000000000000000D+00 0.000000000000000D+00 -.537090446813871D+02
 0.549617921798102D+02 -.155157544621653D+02 0.475466035151362D+02 0.227899200801778D+02
 0.403688717565033D+02 -.502862853325380D+01 -.329390079496432D+02 -.227899200801778D+02
 0.323294393443289D+02 0.205443829954191D+02 -.146075955654929D+02 0.202420139178682D+02
0.644402012777D-03 0.000000000000D+00 0.000000000000D+00 0.912617141628D+00 0.000000000000D+00  5 -1 1 -11 11 21 2 0.40198114D-01 0.12442048D-02 0.15937400D+04 0.84524820D+04 0.84524820D+04 0.12169743D+01  1  2 14  2  5  2        1 0.739114364654D+01
  </mgrwgt>
  </event>
  <event npLO=' -1 ' npNLO=' 0 '>
  5     66 0.12615437E+02 0.87142155E+02 0.75467711E-02 0.97115299E-01
       -1 -1    0    0    0  501 0.00000000E+00 0.00000000E+00 0.61583158E+01 0.61583158E+01 0.00000000E+00 0.0000E+00 0.9000E+01
        1 -1    0    0  501    0 0.00000000E+00 0.00000000E+00 -.30827240E+03 0.30827240E+03 0.00000000E+00 0.0000E+00 0.9000E+01
       23  2    1    2    0    0 0.00000000E+00 0.00000000E+00 -.30211408E+03 0.31443072E+03 0.87142155E+02 0.0000E+00 0.0000E+00
      -11  1    3    3    0    0 -.25453849E+02 -.28427956E+01 -.27824257E+03 0.27941887E+03 0.00000000E+00 0.0000E+00 0.9000E+01
       11  1    3    3    0    0 0.25453849E+02 0.28427956E+01 -.23871518E+02 0.35011845E+02 0.00000000E+00 0.0000E+00 0.9000E+01
#aMCatNLO 1  0  0  1  1 0.50847114D+03 0.00000000D+00  -5  5  0 0.00000000D+00 0.00000000D+00 0.00000000D+00 0.00000000D+00 0.00000000D+00
  <mgrwgt>
 0.4717315099D+03    5    2    0
 0.435710775215195D+02 0.000000000000000D+00 0.000000000000000D+00 0.435710775215195D+02
 0.435710775215195D+02 0.000000000000000D+00 0.000000000000000D+00 -.435710775215195D+02
 0.435710775215195D+02 -.254538487895740D+02 -.284279561364203D+01 -.352485303421692D+02
 0.435710775215195D+02 0.254538487895740D+02 0.284279561364203D+01 0.352485303421692D+02
 0.000000000000000D+00 -.000000000000000D+00 0.000000000000000D+00 0.000000000000000D+00
 0.401083349207482D+03 0.000000000000000D+00 0.000000000000000D+00 0.401083349207482D+03
 0.353845855107453D+03 0.000000000000000D+00 0.000000000000000D+00 -.353845855107453D+03
 0.104595902087217D+03 0.745072315222338D+02 -.643934491470067D+02 -.352485303421692D+02
 0.276420274380825D+03 0.241336505715302D+03 -.130086126111188D+03 0.352485303421692D+02
 0.373913027846893D+03 -.315843737237536D+03 0.194479575258194D+03 0.472374941000291D+02
0.277330717547D-01 0.000000000000D+00 0.000000000000D+00 0.901217199603D-01 0.000000000000D+00  5 -1 1 -11 11 21 0 0.94743320D-03 0.47426523D-01 0.65597991D+03 0.75937552D+04 0.75937552D+04 0.12219249D+01  1  2  2  1  5  1       -1 0.434838531775D+03
-.101187538838D-02 0.000000000000D+00 -.106502297824D-03 0.901217199603D-01 0.000000000000D+00  5 -1 1 -11 11 21 2 0.94743320D-03 0.47426523D-01 0.65597991D+03 0.75937552D+04 0.75937552D+04 0.12219249D+01  1  2  3  1  5  1       -1 -.297949840919D+02
0.762180888850D-03 0.000000000000D+00 0.000000000000D+00 0.901217199603D-01 0.000000000000D+00  5 -1 1 -11 11 21 2 0.94743320D-03 0.47426523D-01 0.65597991D+03 0.75937552D+04 0.75937552D+04 0.12219249D+01  1  2 15  1  5  1       -1 0.178433790827D+02
0.863153576591D+00 0.000000000000D+00 -.143118187209D+00 0.901217199603D-01 0.000000000000D+00  5 -1 1 -11 11 21 2 0.76670236D-01 0.47426523D-01 0.65597991D+03 0.75937552D+04 0.75937552D+04 0.12219249D+01  1  2  5  1  5  1       -1 0.156229493681D+02
0.262698878885D+00 0.000000000000D+00 -.517043884101D-01 0.901217199603D-01 0.000000000000D+00  5 21 1 -11 11 1 2 0.76670236D-01 0.47426523D-01 0.65597991D+03 0.75937552D+04 0.75937552D+04 0.12219249D+01  1  2  5  3  5  1       -1 0.332216337445D+02
  </mgrwgt>
  </event>
  <event npLO=' -1 ' npNLO=' 0 '>
  5     66 0.12615437E+02 0.51928949E+02 0.75467711E-02 0.11795540E+00
       -1 -1    0    0    0  501 0.00000000E+00 0.00000000E+00 0.98607979E+01 0.98607979E+01 0.00000000E+00 0.0000E+00 0.9000E+01
        1 -1    0    0  501    0 0.00000000E+00 0.00000000E+00 -.21023498E+03 0.21023498E+03 0.00000000E+00 0.0000E+00 0.9000E+01
       23  2    1    2    0    0 0.00000000E+00 0.00000000E+00 -.20037418E+03 0.22009578E+03 0.91062279E+02 0.0000E+00 0.0000E+00
      -11  1    3    3    0    0 0.46203935E+01 0.45147164E+02 -.91316358E+02 0.10197201E+03 0.00000000E+00 0.0000E+00 0.9000E+01
       11  1    3    3    0    0 -.46203935E+01 -.45147164E+02 -.10905782E+03 0.11812376E+03 0.00000000E+00 0.0000E+00 0.9000E+01
#aMCatNLO 1  0  0  1  2 0.23869736D+02 0.00000000D+00  -5  5  0 0.00000000D+00 0.00000000D+00 0.00000000D+00 0.00000000D+00 0.00000000D+00
  <mgrwgt>
 0.4246464937D+03    6    2    0
 0.455311393227146D+02 0.000000000000000D+00 0.000000000000000D+00 0.455311393227146D+02
 0.455311393227146D+02 0.000000000000000D+00 0.000000000000000D+00 -.455311393227146D+02
 0.455311393227146D+02 0.462039354270158D+01 0.451471644273767D+02 0.367017107263650D+01
 0.455311393227146D+02 -.462039354270158D+01 -.451471644273767D+02 -.367017107263650D+01
 0.000000000000000D+00 0.000000000000000D+00 0.000000000000000D+00 -.000000000000000D+00
 0.470480995499654D+02 0.000000000000000D+00 0.000000000000000D+00 0.470480995499654D+02
 0.581866253380314D+02 0.000000000000000D+00 0.000000000000000D+00 -.581866253380314D+02
 0.439949498351791D+02 0.838992013518736D+00 0.438335664496829D+02 0.367017107263650D+01
 0.474321868732553D+02 -.854697703520041D+01 -.465111962804307D+02 -.367017107263650D+01
 0.138075881795623D+02 0.770798502168168D+01 0.267762983074788D+01 -.111385257880659D+02
0.244891711614D-01 0.000000000000D+00 0.000000000000D+00 0.846509373692D+00 0.000000000000D+00  5 -1 1 -11 11 21 0 0.15170458D-02 0.32343843D-01 0.20596145D+04 0.82923386D+04 0.82923386D+04 0.12178535D+01  1  2  2  1  5  1       -1 0.325014347213D+03
-.136049193524D-02 0.000000000000D+00 -.940448654065D-04 0.846509373692D+00 0.000000000000D+00  5 -1 1 -11 11 21 2 0.15170458D-02 0.32343843D-01 0.20596145D+04 0.82923386D+04 0.82923386D+04 0.12178535D+01  1  2  3  1  5  1       -1 -.293586188891D+02
0.135721199807D-02 0.000000000000D+00 0.000000000000D+00 0.846509373692D+00 0.000000000000D+00  5 -1 1 -11 11 21 2 0.15170458D-02 0.32343843D-01 0.20596145D+04 0.82923386D+04 0.82923386D+04 0.12178535D+01  1  2 15  1  5  1       -1 0.267156784646D+02
0.712157666910D-02 0.000000000000D+00 0.000000000000D+00 0.846509373692D+00 0.000000000000D+00  5 -1 1 -11 11 21 2 0.20033043D-02 0.32343843D-01 0.24646955D+04 0.83589213D+04 0.83589213D+04 0.12174856D+01  1  2 12  1  5  1       -1 0.951135357931D+02
-.280863463157D-02 0.000000000000D+00 0.000000000000D+00 0.846509373692D+00 0.000000000000D+00  5 -1 1 -11 11 21 2 0.15170458D-02 0.32343843D-01 0.20596145D+04 0.82923386D+04 0.82923386D+04 0.12178535D+01  1  2  4  1  5  1       -1 -.552858211161D+02
0.260524307998D-03 0.000000000000D+00 0.000000000000D+00 0.846509373692D+00 0.000000000000D+00  5 21 1 -11 11 1 2 0.20033043D-02 0.32343843D-01 0.24646955D+04 0.83589213D+04 0.83589213D+04 0.12174856D+01  1  2 12  3  5  1       -1 0.624473721909D+02
  </mgrwgt>
  </event>
  <event npLO=' -1 ' npNLO=' 0 '>
  5     66 0.12615437E+02 0.41584636E+02 0.75467711E-02 0.11899038E+00
       -1 -1    0    0    0  501 0.00000000E+00 0.00000000E+00 0.11441866E+01 0.11441866E+01 0.00000000E+00 0.0000E+00 0.9000E+01
        1 -1    0    0  501    0 0.00000000E+00 0.00000000E+00 -.13912093E+04 0.13912093E+04 0.00000000E+00 0.0000E+00 0.9000E+01
       23  2    1    2    0    0 0.00000000E+00 0.00000000E+00 -.13900651E+04 0.13923535E+04 0.79794813E+02 0.0000E+00 0.0000E+00
      -11  1    3    3    0    0 0.28732875E+02 -.77585873E+01 -.23138690E+03 0.23329310E+03 0.00000000E+00 0.0000E+00 0.9000E+01
       11  1    3    3    0    0 -.28732875E+02 0.77585873E+01 -.11586782E+04 0.11590604E+04 0.00000000E+00 0.0000E+00 0.9000E+01
#aMCatNLO 1  0  0  2  1 0.67938472D+02 0.00000000D+00  -5  5  0 0.00000000D+00 0.00000000D+00 0.00000000D+00 0.00000000D+00 0.00000000D+00
  <mgrwgt>
 0.5428824485D+03    5    2    0
 0.398974063384670D+02 0.000000000000000D+00 0.000000000000000D+00 0.398974063384670D+02
 0.398974063384670D+02 0.000000000000000D+00 0.000000000000000D+00 -.398974063384670D+02
 0.398974063384670D+02 0.287328747182157D+02 -.775858734237242D+01 0.265712112146745D+02
 0.398974063384670D+02 -.287328747182157D+02 0.775858734237242D+01 -.265712112146745D+02
 0.000000000000000D+00 -.000000000000000D+00 -.000000000000000D+00 0.000000000000000D+00
 0.808080177734623D+02 0.000000000000000D+00 0.000000000000000D+00 0.808080177734623D+02
 0.503456733562211D+02 0.000000000000000D+00 0.000000000000000D+00 -.503456733562211D+02
 0.501770898062460D+02 0.424022089193612D+02 0.370995347249547D+01 0.265712112146745D+02
 0.361359533291775D+02 -.171943655039854D+02 0.174393707601223D+02 -.265712112146745D+02
 0.448406479942599D+02 -.252078434153758D+02 -.211493242326177D+02 0.304623444172412D+02
0.346542818945D-01 0.000000000000D+00 0.000000000000D+00 0.786347062145D-02 0.000000000000D+00  5 -1 1 -11 11 21 0 0.17602870D-03 0.21403220D+00 0.88577377D+03 0.63672121D+04 0.63672121D+04 0.12302029D+01  1  2  2  2  5  2        1 0.549504438225D+03
-.172417132900D-02 0.000000000000D+00 -.133081567157D-03 0.786347062145D-02 0.000000000000D+00  5 -1 1 -11 11 21 2 0.17602870D-03 0.21403220D+00 0.88577377D+03 0.63672121D+04 0.63672121D+04 0.12302029D+01  1  2  3  2  5  2        1 -.476752778654D+02
0.170278012599D-02 0.000000000000D+00 0.000000000000D+00 0.786347062145D-02 0.000000000000D+00  5 -1 1 -11 11 21 2 0.17602870D-03 0.21403220D+00 0.88577377D+03 0.63672121D+04 0.63672121D+04 0.12302029D+01  1  2 15  2  5  2        1 0.408626320407D+02
0.315806975529D-03 0.000000000000D+00 0.000000000000D+00 0.786347062145D-02 0.000000000000D+00  5 -1 1 -11 11 21 2 0.17602870D-03 0.54702403D+00 0.24979711D+04 0.74499414D+04 0.74499414D+04 0.12228153D+01  1  2 12  2  5  2        1 0.183550618167D+00
0.327382047677D-04 0.000000000000D+00 0.000000000000D+00 0.786347062145D-02 0.000000000000D+00  5 -1 21 -11 11 -1 2 0.17602870D-03 0.54702403D+00 0.24979711D+04 0.74499414D+04 0.74499414D+04 0.12228153D+01  1  2 12  4  5  2        1 0.710551571676D-02
  </mgrwgt>
  </event>
  <event npLO=' -1 ' npNLO=' 0 '>
  5     66 0.12615437E+02 0.91208768E+02 0.75467711E-02 0.10891337E+00
       -1 -1    0    0    0  501 0.00000000E+00 0.00000000E+00 0.23776155E+01 0.23776155E+01 0.00000000E+00 0.0000E+00 0.9000E+01
        1 -1    0    0  501    0 0.00000000E+00 0.00000000E+00 -.87472503E+03 0.87472503E+03 0.00000000E+00 0.0000E+00 0.9000E+01
       23  2    1    2    0    0 0.00000000E+00 0.00000000E+00 -.87234741E+03 0.87710264E+03 0.91208768E+02 0.0000E+00 0.0000E+00
      -11  1    3    3    0    0 0.35012826E+02 0.15769263E+02 -.67274415E+03 0.67383919E+03 0.00000000E+00 0.0000E+00 0.9000E+01
       11  1    3    3    0    0 -.35012826E+02 -.15769263E+02 -.19960326E+03 0.20326345E+03 0.00000000E+00 0.0000E+00 0.9000E+01
#aMCatNLO 1  0  0  1  1 0.14826808D+03 0.00000000D+00  -5  5  0 0.00000000D+00 0.00000000D+00 0.00000000D+00 0.00000000D+00 0.00000000D+00
  <mgrwgt>
 0.5816520197D+03    5    2    0
 0.456043837840646D+02 0.000000000000000D+00 0.000000000000000D+00 0.456043837840646D+02
 0.456043837840646D+02 0.000000000000000D+00 0.000000000000000D+00 -.456043837840646D+02
 0.456043837840646D+02 0.350128257840702D+02 0.157692632654388D+02 -.246006541986974D+02
 0.456043837840646D+02 -.350128257840702D+02 -.157692632654388D+02 0.246006541986974D+02
 0.000000000000000D+00 -.000000000000000D+00 0.000000000000000D+00 0.000000000000000D+00
 0.271080321361818D+03 0.000000000000000D+00 0.000000000000000D+00 0.271080321361818D+03
 0.101226853870540D+03 0.000000000000000D+00 0.000000000000000D+00 -.101226853870540D+03
 0.128148462970305D+03 0.125177035415836D+03 0.121468588182377D+02 -.246006541986974D+02
 0.304322459809652D+02 0.444426947445521D+01 -.173544771537638D+02 0.246006541986974D+02
 0.213726466281088D+03 -.129621304890291D+03 0.520761833552607D+01 0.169853467491278D+03
0.431109374639D-01 0.000000000000D+00 0.000000000000D+00 0.884642424600D+00 0.000000000000D+00  5 -1 1 -11 11 21 0 0.36578701D-03 0.13457308D+00 0.14745676D+04 0.83190393D+04 0.83190393D+04 0.12177056D+01  1  2  2  1  5  1       -1 0.600141885173D+03
-.230895875228D-02 0.000000000000D+00 -.165557351232D-03 0.884642424600D+00 0.000000000000D+00  5 -1 1 -11 11 21 2 0.36578701D-03 0.13457308D+00 0.14745676D+04 0.83190393D+04 0.83190393D+04 0.12177056D+01  1  2  3  1  5  1       -1 -.535742220708D+02
0.200844780589D-02 0.000000000000D+00 0.000000000000D+00 0.884642424600D+00 0.000000000000D+00  5 -1 1 -11 11 21 2 0.36578701D-03 0.13457308D+00 0.14745676D+04 0.83190393D+04 0.83190393D+04 0.12177056D+01  1  2 15  1  5  1       -1 0.414583110374D+02
0.938058768984D-01 0.000000000000D+00 -.414494539045D-01 0.884642424600D+00 0.000000000000D+00  5 -1 1 -11 11 21 2 0.51599425D-02 0.13457308D+00 0.14745676D+04 0.83190393D+04 0.83190393D+04 0.12177056D+01  1  2  5  1  5  1       -1 0.115917572965D+02
0.194126108612D-01 0.000000000000D+00 -.124765848252D-01 0.884642424600D+00 0.000000000000D+00  5 21 1 -11 11 1 2 0.51599425D-02 0.13457308D+00 0.14745676D+04 0.83190393D+04 0.83190393D+04 0.12177056D+01  1  2  5  3  5  1       -1 -.179657117467D+02
  </mgrwgt>
  </event>
  <event npLO=' -1 ' npNLO=' 0 '>
  6     66 0.12615437E+02 0.95271882E+02 0.75467711E-02 0.11714623E+00
       21 -1    0    0  502  501 0.00000000E+00 0.00000000E+00 0.92112615E+02 0.92112615E+02 0.00000000E+00 0.0000E+00 0.9000E+01
        1 -1    0    0  501    0 0.00000000E+00 0.00000000E+00 -.31978852E+02 0.31978852E+02 0.00000000E+00 0.0000E+00 0.9000E+01
       23  2    1    2    0    0 -.85125099E+01 -.32597035E+01 0.62946997E+02 0.11455193E+03 0.95271882E+02 0.0000E+00 0.0000E+00
      -13  1    3    3    0    0 0.38959272E+02 -.13489547E+02 0.48979266E+02 0.64021569E+02 0.00000000E+00 0.0000E+00 0.9000E+01
       13  1    3    3    0    0 -.47471782E+02 0.10229843E+02 0.13967731E+02 0.50530360E+02 0.00000000E+00 0.0000E+00 0.9000E+01
        1  1    1    2  502    0 0.85125099E+01 0.32597035E+01 -.28132345E+01 0.95395377E+01 0.00000000E+00 0.0000E+00 0.9000E+01
#aMCatNLO 2  0  0  1  2 0.22860775D+02 0.00000000D+00  -5  5  0 0.00000000D+00 0.00000000D+00 0.00000000D+00 0.00000000D+00 0.00000000D+00
  <mgrwgt>
 0.2223493774D+02    2    2    0
 0.476359408231103D+02 0.000000000000000D+00 0.000000000000000D+00 0.476359408231103D+02
 0.476359408231103D+02 0.000000000000000D+00 0.000000000000000D+00 -.476359408231103D+02
 0.476359408231103D+02 0.430622042894472D+02 -.119184070000911D+02 0.165160829017343D+02
 0.476359408231103D+02 -.430622042894472D+02 0.119184070000911D+02 -.165160829017343D+02
 0.000000000000000D+00 0.000000000000000D+00 0.000000000000000D+00 -.000000000000000D+00
 0.496668764753736D+02 0.000000000000000D+00 0.000000000000000D+00 0.496668764753736D+02
 0.593082526517921D+02 0.000000000000000D+00 0.000000000000000D+00 -.593082526517921D+02
 0.444136662058083D+02 0.389592720774263D+02 -.134895467166641D+02 0.165160829017343D+02
 0.512932819446152D+02 -.474717819933083D+02 0.102298432349982D+02 -.165160829017343D+02
 0.132681809767422D+02 0.851250991588198D+01 0.325970348166586D+01 -.964137617641847D+01
-.343507615198D-03 0.000000000000D+00 0.000000000000D+00 0.104673712473D+00 0.000000000000D+00  5 21 1 -13 13 1 2 0.17643557D-01 0.39515650D-02 0.24455664D+04 0.91598199D+04 0.91598199D+04 0.12133025D+01  1  2 13  3  5  1       -1 -.374963327678D+02
0.502668635699D-03 0.000000000000D+00 0.000000000000D+00 0.104673712473D+00 0.805719329753D-04  5 21 1 -13 13 1 2 0.14171172D-01 0.49198234D-02 0.24455664D+04 0.91598199D+04 0.91598199D+04 0.12133025D+01  1  2  1  3  5  1       -1 0.597312705121D+02
  </mgrwgt>
  </event>
  <event npLO=' -1 ' npNLO=' 0 '>
  5     66 0.12615437E+02 0.76909821E+02 0.75467711E-02 0.11157500E+00
       -1 -1    0    0    0  501 0.00000000E+00 0.00000000E+00 0.20646561E+01 0.20646561E+01 0.00000000E+00 0.0000E+00 0.9000E+01
        1 -1    0    0  501    0 0.00000000E+00 0.00000000E+00 -.71623557E+03 0.71623557E+03 0.00000000E+00 0.0000E+00 0.9000E+01
       23  2    1    2    0    0 0.00000000E+00 0.00000000E+00 -.71417091E+03 0.71830022E+03 0.76909821E+02 0.0000E+00 0.0000E+00
      -13  1    3    3    0    0 -.13530982E+02 0.31049636E+02 -.52716021E+03 0.52824715E+03 0.00000000E+00 0.0000E+00 0.9000E+01
       13  1    3    3    0    0 0.13530982E+02 -.31049636E+02 -.18701070E+03 0.19005307E+03 0.00000000E+00 0.0000E+00 0.9000E+01
#aMCatNLO 1  0  0  1  2 0.15297697D+03 0.00000000D+00  -5  5  0 0.00000000D+00 0.00000000D+00 0.00000000D+00 0.00000000D+00 0.00000000D+00
  <mgrwgt>
 0.8044307319D+03    5    2    0
 0.384549106862748D+02 0.000000000000000D+00 0.000000000000000D+00 0.384549106862748D+02
 0.384549106862748D+02 0.000000000000000D+00 0.000000000000000D+00 -.384549106862748D+02
 0.384549106862748D+02 -.135309821325992D+02 0.310496356041043D+02 -.182102390777548D+02
 0.384549106862748D+02 0.135309821325992D+02 -.310496356041043D+02 0.182102390777548D+02
 0.000000000000000D+00 -.000000000000000D+00 -.000000000000000D+00 0.000000000000000D+00
 0.123355615461857D+03 0.000000000000000D+00 0.000000000000000D+00 0.123355615461857D+03
 0.119504796270444D+03 0.000000000000000D+00 0.000000000000000D+00 -.119504796270444D+03
 0.609716608269848D+02 0.359079868075084D+02 0.457880672245912D+02 -.182102390777548D+02
 0.726060411523162D+02 0.687550421081022D+02 -.145865893633821D+02 0.182102390777548D+02
 0.109282709753000D+03 -.104663028915611D+03 -.312014778612091D+02 0.385081919141374D+01
0.306645628561D-01 0.000000000000D+00 0.000000000000D+00 0.558640306563D-02 0.000000000000D+00  5 -1 1 -13 13 21 0 0.31763941D-03 0.11019009D+00 0.11471673D+04 0.59151206D+04 0.59151206D+04 0.12337140D+01  1  2  2  1  5  1       -1 0.678915350683D+03
-.167019918249D-02 0.000000000000D+00 -.117759995532D-03 0.558640306563D-02 0.000000000000D+00  5 -1 1 -13 13 21 2 0.31763941D-03 0.11019009D+00 0.11471673D+04 0.59151206D+04 0.59151206D+04 0.12337140D+01  1  2  3  1  5  1       -1 -.627917376680D+02
0.153073366543D-02 0.000000000000D+00 0.000000000000D+00 0.558640306563D-02 0.000000000000D+00  5 -1 1 -13 13 21 2 0.31763941D-03 0.11019009D+00 0.11471673D+04 0.59151206D+04 0.59151206D+04 0.12337140D+01  1  2 15  1  5  1       -1 0.515831022684D+02
0.706337437818D-01 0.000000000000D+00 -.237930916942D-01 0.558640306563D-02 0.000000000000D+00  5 -1 1 -13 13 21 2 0.35308740D-02 0.11019009D+00 0.11471673D+04 0.59151206D+04 0.59151206D+04 0.12337140D+01  1  2  5  1  5  1       -1 0.390621686859D+02
0.157814195876D-01 0.000000000000D+00 -.673574380537D-02 0.558640306563D-02 0.000000000000D+00  5 21 1 -13 13 1 2 0.35308740D-02 0.11019009D+00 0.11471673D+04 0.59151206D+04 0.59151206D+04 0.12337140D+01  1  2  5  3  5  1       -1 0.976618479291D+02
  </mgrwgt>
  </event>
  <event npLO=' -1 ' npNLO=' 0 '>
  5     66 0.12615437E+02 0.51221570E+02 0.75467711E-02 0.11836296E+00
       -1 -1    0    0    0  501 0.00000000E+00 0.00000000E+00 0.12138134E+01 0.12138134E+01 0.00000000E+00 0.0000E+00 0.9000E+01
        1 -1    0    0  501    0 0.00000000E+00 0.00000000E+00 -.15818789E+04 0.15818789E+04 0.00000000E+00 0.0000E+00 0.9000E+01
       23  2    1    2    0    0 0.00000000E+00 0.00000000E+00 -.15806651E+04 0.15830927E+04 0.87638023E+02 0.0000E+00 0.0000E+00
      -11  1    3    3    0    0 -.41730669E+02 0.13365758E+02 -.79243324E+03 0.79364383E+03 0.00000000E+00 0.0000E+00 0.9000E+01
       11  1    3    3    0    0 0.41730669E+02 -.13365758E+02 -.78823185E+03 0.78944889E+03 0.00000000E+00 0.0000E+00 0.9000E+01
#aMCatNLO 1  0  0  1  2 0.30264894D+02 0.00000000D+00  -5  5  0 0.00000000D+00 0.00000000D+00 0.00000000D+00 0.00000000D+00 0.00000000D+00
  <mgrwgt>
 0.6642452290D+03    6    2    0
 0.438190115630416D+02 0.000000000000000D+00 0.000000000000000D+00 0.438190115630416D+02
 0.438190115630416D+02 0.000000000000000D+00 0.000000000000000D+00 -.438190115630416D+02
 0.438190115630416D+02 -.417306693421591D+02 0.133657579979078D+02 -.116291696697326D+00
 0.438190115630416D+02 0.417306693421591D+02 -.133657579979078D+02 0.116291696697326D+00
 0.000000000000000D+00 0.000000000000000D+00 -.000000000000000D+00 -.000000000000000D+00
 0.504659005215298D+02 0.000000000000000D+00 0.000000000000000D+00 0.504659005215298D+02
 0.579119428150744D+02 0.000000000000000D+00 0.000000000000000D+00 -.579119428150744D+02
 0.533649144386577D+02 -.504543328442955D+02 0.173827749949075D+02 -.116291696697326D+00
 0.360017673550636D+02 0.345655995162314D+02 -.100664322881997D+02 0.116291696697326D+00
 0.190111615428828D+02 0.158887333280641D+02 -.731634270670785D+01 -.744604229354459D+01
0.531035107615D-01 0.000000000000D+00 0.000000000000D+00 0.770065972016D-01 0.000000000000D+00  5 -1 1 -11 11 21 0 0.18674052D-03 0.24336598D+00 0.19200923D+04 0.76804231D+04 0.76804231D+04 0.12213974D+01  1  2  2  1  5  1       -1 0.593449669430D+03
-.295019504226D-02 0.000000000000D+00 -.203931463800D-03 0.770065972016D-01 0.000000000000D+00  5 -1 1 -11 11 21 2 0.18674052D-03 0.24336598D+00 0.19200923D+04 0.76804231D+04 0.76804231D+04 0.12213974D+01  1  2  3  1  5  1       -1 -.538973769873D+02
0.282596907889D-02 0.000000000000D+00 0.000000000000D+00 0.770065972016D-01 0.000000000000D+00  5 -1 1 -11 11 21 2 0.18674052D-03 0.24336598D+00 0.19200923D+04 0.76804231D+04 0.76804231D+04 0.12213974D+01  1  2 15  1  5  1       -1 0.471131370844D+02
0.127323956822D-01 0.000000000000D+00 0.000000000000D+00 0.770065972016D-01 0.000000000000D+00  5 -1 1 -11 11 21 2 0.28423632D-03 0.24336598D+00 0.28546939D+04 0.79864038D+04 0.79864038D+04 0.12195872D+01  1  2 12  1  5  1       -1 0.120928546605D+03
-.103144753966D-01 0.000000000000D+00 0.000000000000D+00 0.770065972016D-01 0.000000000000D+00  5 -1 1 -11 11 21 2 0.18674052D-03 0.24336598D+00 0.19200923D+04 0.76804231D+04 0.76804231D+04 0.12213974D+01  1  2  4  1  5  1       -1 -.171957753162D+03
0.628374061607D-03 0.000000000000D+00 0.000000000000D+00 0.770065972016D-01 0.000000000000D+00  5 21 1 -11 11 1 2 0.28423632D-03 0.24336598D+00 0.28546939D+04 0.79864038D+04 0.79864038D+04 0.12195872D+01  1  2 12  3  5  1       -1 0.128609006065D+03
  </mgrwgt>
  </event>
  <event npLO=' -1 ' npNLO=' 0 '>
  5     66 0.12615437E+02 0.91236424E+02 0.75467711E-02 0.11719444E+00
       -5 -1    0    0    0  501 0.00000000E+00 0.00000000E+00 0.72278549E+03 0.72278549E+03 0.00000000E+00 0.0000E+00 0.9000E+01
        5 -1    0    0  501    0 0.00000000E+00 0.00000000E+00 -.28791686E+01 0.28791686E+01 0.00000000E+00 0.0000E+00 0.9000E+01
       23  2    1    2    0    0 0.00000000E+00 0.00000000E+00 0.71990632E+03 0.72566466E+03 0.91236424E+02 0.0000E+00 0.0000E+00
      -11  1    3    3    0    0 -.28990728E+02 0.35639437E+01 0.63865617E+03 0.63932376E+03 0.00000000E+00 0.0000E+00 0.9000E+01
       11  1    3    3    0    0 0.28990728E+02 -.35639437E+01 0.81250150E+02 0.86340900E+02 0.00000000E+00 0.0000E+00 0.9000E+01
#aMCatNLO 1  0  0  1  1 0.19126921D+03 0.00000000D+00  -5  5  0 0.00000000D+00 0.00000000D+00 0.00000000D+00 0.00000000D+00 0.00000000D+00
  <mgrwgt>
 0.4030407258D+02    3    2    0
 0.456182121157610D+02 0.000000000000000D+00 0.000000000000000D+00 0.456182121157610D+02
 0.456182121157610D+02 0.000000000000000D+00 0.000000000000000D+00 -.456182121157610D+02
 0.456182121157610D+02 -.289907280640790D+02 0.356394365985844D+01 0.350407943480529D+02
 0.456182121157610D+02 0.289907280640790D+02 -.356394365985844D+01 -.350407943480529D+02
 0.000000000000000D+00 0.000000000000000D+00 0.000000000000000D+00 -.000000000000000D+00
 0.486012050790153D+02 0.000000000000000D+00 0.000000000000000D+00 0.486012050790153D+02
 0.271189903225173D+03 0.000000000000000D+00 0.000000000000000D+00 -.271189903225173D+03
 0.535818019322797D+02 -.400201324798826D+02 -.644524833192265D+01 0.350407943480529D+02
 0.418628616768594D+02 0.192642764012767D+02 -.123907051441206D+02 -.350407943480529D+02
 0.224346444695049D+03 0.207558560786059D+02 0.188359534760432D+02 -.222588698146158D+03
0.109286050760D+00 0.000000000000D+00 0.000000000000D+00 0.158158639428D+01 0.000000000000D+00  5 -5 5 -11 11 21 0 0.11119777D+00 0.44294901D-03 0.85316401D+03 0.83240851D+04 0.83240851D+04 0.12176777D+01  1  2  2  1  5  1       -5 0.411922981825D+02
-.460416219990D-02 0.000000000000D+00 -.419687210596D-03 0.158158639428D+01 0.000000000000D+00  5 -5 5 -11 11 21 2 0.11119777D+00 0.44294901D-03 0.85316401D+03 0.83240851D+04 0.83240851D+04 0.12176777D+01  1  2  3  1  5  1       -5 -.310746128721D+01
0.397088625560D-02 0.000000000000D+00 0.000000000000D+00 0.158158639428D+01 0.000000000000D+00  5 -5 5 -11 11 21 2 0.11119777D+00 0.44294901D-03 0.85316401D+03 0.83240851D+04 0.83240851D+04 0.12176777D+01  1  2 15  1  5  1       -5 0.221923568885D+01
  </mgrwgt>
  </event>
  <event npLO=' -1 ' npNLO=' 0 '>
  5     66 0.12615437E+02 0.96049760E+02 0.75467711E-02 0.10329846E+00
       -3 -1    0    0    0  501 0.00000000E+00 0.00000000E+00 0.16683139E+03 0.16683139E+03 0.00000000E+00 0.0000E+00 0.9000E+01
        3 -1    0    0  501    0 0.00000000E+00 0.00000000E+00 -.13824671E+02 0.13824671E+02 0.00000000E+00 0.0000E+00 0.9000E+01
       23  2    1    2    0    0 0.00000000E+00 0.00000000E+00 0.15300672E+03 0.18065606E+03 0.96049760E+02 0.0000E+00 0.0000E+00
      -13  1    3    3    0    0 0.36099671E+02 0.24691835E+02 0.39192304E+02 0.58727418E+02 0.00000000E+00 0.0000E+00 0.9000E+01
       13  1    3    3    0    0 -.36099671E+02 -.24691835E+02 0.11381441E+03 0.12192864E+03 0.00000000E+00 0.0000E+00 0.9000E+01
#aMCatNLO 1  0  0  1  2 0.36573995D+03 0.00000000D+00  -5  5  0 0.00000000D+00 0.00000000D+00 0.00000000D+00 0.00000000D+00 0.00000000D+00
  <mgrwgt>
 0.1674763926D+03    3    2    0
 0.480248801497776D+02 0.000000000000000D+00 0.000000000000000D+00 0.480248801497776D+02
 0.480248801497776D+02 0.000000000000000D+00 0.000000000000000D+00 -.480248801497776D+02
 0.480248801497776D+02 0.360996711568036D+02 0.246918350228179D+02 -.198372412138656D+02
 0.480248801497776D+02 -.360996711568036D+02 -.246918350228179D+02 0.198372412138656D+02
 0.000000000000000D+00 -.000000000000000D+00 -.000000000000000D+00 -.000000000000000D+00
 0.174629720530762D+03 0.000000000000000D+00 0.000000000000000D+00 0.174629720530762D+03
 0.317127340275050D+03 0.000000000000000D+00 0.000000000000000D+00 -.317127340275050D+03
 0.211072152715424D+03 0.143428032219523D+03 0.153578439523853D+03 -.198372412138656D+02
 0.235406368753122D+02 -.645436968048310D+01 0.109080959633606D+02 0.198372412138656D+02
 0.257144271215076D+03 -.136973662539040D+03 -.164486535487213D+03 -.142497619744287D+03
0.346337073630D-01 0.000000000000D+00 0.000000000000D+00 0.528100932101D-01 0.000000000000D+00  5 -3 3 -13 13 21 0 0.25666367D-01 0.21268725D-02 0.19128730D+04 0.92255565D+04 0.92255565D+04 0.12129774D+01  1  2  2  1  5  1       -3 0.169977437399D+03
-.190362625384D-02 0.000000000000D+00 -.133002555538D-03 0.528100932101D-01 0.000000000000D+00  5 -3 3 -13 13 21 2 0.25666367D-01 0.21268725D-02 0.19128730D+04 0.92255565D+04 0.92255565D+04 0.12129774D+01  1  2  3  1  5  1       -3 -.152571829975D+02
0.176653184152D-02 0.000000000000D+00 0.000000000000D+00 0.528100932101D-01 0.000000000000D+00  5 -3 3 -13 13 21 2 0.25666367D-01 0.21268725D-02 0.19128730D+04 0.92255565D+04 0.92255565D+04 0.12129774D+01  1  2 15  1  5  1       -3 0.127561381969D+02
  </mgrwgt>
  </event>
  <event npLO=' -1 ' npNLO=' 0 '>
  6     66 0.12615437E+02 0.91032914E+02 0.75467711E-02 0.11793552E+00
       21 -1    0    0  502  501 0.00000000E+00 0.00000000E+00 0.43765194E+01 0.43765194E+01 0.00000000E+00 0.0000E+00 0.9000E+01
        1 -1    0    0  501    0 0.00000000E+00 0.00000000E+00 -.59497731E+03 0.59497731E+03 0.00000000E+00 0.0000E+00 0.9000E+01
       23  2    1    2    0    0 0.91836813E+01 -.25039219E+01 -.50522494E+03 0.51344897E+03 0.91032914E+02 0.0000E+00 0.0000E+00
      -13  1    3    3    0    0 0.11576543E+02 -.46270787E+02 -.26347184E+03 0.26775439E+03 0.00000000E+00 0.0000E+00 0.9000E+01
       13  1    3    3    0    0 -.23928620E+01 0.43766865E+02 -.24175311E+03 0.24569458E+03 0.00000000E+00 0.0000E+00 0.9000E+01
        1  1    1    2  502    0 -.91836813E+01 0.25039219E+01 -.85375848E+02 0.85904861E+02 0.00000000E+00 0.0000E+00 0.9000E+01
#aMCatNLO 2  0  0  1  2 0.17504474D+02 0.00000000D+00  -5  5  0 0.00000000D+00 0.00000000D+00 0.00000000D+00 0.00000000D+00 0.00000000D+00
  <mgrwgt>
 0.5427126601D+02    2    2    0
 0.455164570481059D+02 0.000000000000000D+00 0.000000000000000D+00 0.455164570481059D+02
 0.455164570481059D+02 0.000000000000000D+00 0.000000000000000D+00 -.455164570481059D+02
 0.455164570481059D+02 0.688749564378969D+01 -.449923224818339D+02 -.344043530886315D-01
 0.455164570481059D+02 -.688749564378969D+01 0.449923224818339D+02 0.344043530886315D-01
 0.000000000000000D+00 -.000000000000000D+00 0.000000000000000D+00 -.000000000000000D+00
 0.487084380390053D+02 0.000000000000000D+00 0.000000000000000D+00 0.487084380390053D+02
 0.534595203985684D+02 0.000000000000000D+00 0.000000000000000D+00 -.534595203985684D+02
 0.476969941663641D+02 0.115765433514015D+02 -.462707868193289D+02 -.344043530886315D-01
 0.438322420177493D+02 -.239286201447713D+01 0.437668649553827D+02 0.344043530886315D-01
 0.106387222534603D+02 -.918368133692434D+01 0.250392186394616D+01 -.475108235956306D+01
-.401255095917D-03 0.000000000000D+00 0.000000000000D+00 0.808787962536D+00 0.000000000000D+00  5 21 1 -13 13 1 2 0.79080992D-03 0.77934623D-01 0.25526806D+04 0.83776011D+04 0.83776011D+04 0.12173830D+01  1  2 13  3  5  1       -1 -.125414701205D+03
0.565168066499D-03 0.000000000000D+00 0.000000000000D+00 0.808787962536D+00 0.945229394326D-03  5 21 1 -13 13 1 2 0.67331067D-03 0.91534971D-01 0.25526806D+04 0.83776011D+04 0.83776011D+04 0.12173830D+01  1  2  1  3  5  1       -1 0.179685967220D+03
  </mgrwgt>
  </event>
  <event npLO=' -1 ' npNLO=' 0 '>
  5     66 0.12615437E+02 0.49032100E+02 0.75467711E-02 0.11815297E+00
       -1 -1    0    0    0  501 0.00000000E+00 0.00000000E+00 0.21562665E+01 0.21562665E+01 0.00000000E+00 0.0000E+00 0.9000E+01
        1 -1    0    0  501    0 0.00000000E+00 0.00000000E+00 -.94757397E+03 0.94757397E+03 0.00000000E+00 0.0000E+00 0.9000E+01
       23  2    1    2    0    0 0.00000000E+00 0.00000000E+00 -.94541770E+03 0.94973024E+03 0.90404026E+02 0.0000E+00 0.0000E+00
      -13  1    3    3    0    0 -.40840554E+01 -.30489279E+02 -.12476819E+03 0.12850438E+03 0.00000000E+00 0.0000E+00 0.9000E+01
       13  1    3    3    0    0 0.40840554E+01 0.30489279E+02 -.82064951E+03 0.82122585E+03 0.00000000E+00 0.0000E+00 0.9000E+01
#aMCatNLO 1  0  0  2  1 0.22903700D+01 0.00000000D+00  -5  5  0 0.00000000D+00 0.00000000D+00 0.00000000D+00 0.00000000D+00 0.00000000D+00
  <mgrwgt>
 0.1834927813D+04   11    2    0
 0.452020131956467D+02 0.000000000000000D+00 0.000000000000000D+00 0.452020131956467D+02
 0.452020131956467D+02 0.000000000000000D+00 0.000000000000000D+00 -.452020131956467D+02
 0.452020131956467D+02 -.408405540900583D+01 -.304892789382357D+02 0.331201805276185D+02
 0.452020131956467D+02 0.408405540900583D+01 0.304892789382357D+02 -.331201805276185D+02
 0.000000000000000D+00 0.000000000000000D+00 0.000000000000000D+00 -.000000000000000D+00
 0.459584642418598D+02 0.000000000000000D+00 0.000000000000000D+00 0.459584642418598D+02
 0.462108857031067D+02 0.000000000000000D+00 0.000000000000000D+00 -.462108857031067D+02
 0.456987730495447D+02 -.466128832719077D+01 -.311400689013777D+02 0.331201805276185D+02
 0.447218133514312D+02 0.351302632382152D+01 0.298454833652656D+02 -.331201805276185D+02
 0.174876354399047D+01 0.114826200336926D+01 0.129458553611205D+01 -.252421461246905D+00
0.434658056661D-01 0.000000000000D+00 0.000000000000D+00 0.102522207009D+01 0.000000000000D+00  5 -1 1 -13 13 21 0 0.33173331D-03 0.14578061D+00 0.94627564D+03 0.81728880D+04 0.81728880D+04 0.12185217D+01  1  2  2  2  5  2        1 0.606494723205D+03
-.197986097899D-02 0.000000000000D+00 -.166920138567D-03 0.102522207009D+01 0.000000000000D+00  5 -1 1 -13 13 21 2 0.33173331D-03 0.14578061D+00 0.94627564D+03 0.81728880D+04 0.81728880D+04 0.12185217D+01  1  2  3  2  5  2        1 -.484746781956D+02
0.219342539565D-02 0.000000000000D+00 0.000000000000D+00 0.102522207009D+01 0.000000000000D+00  5 -1 1 -13 13 21 2 0.33173331D-03 0.14578061D+00 0.94627564D+03 0.81728880D+04 0.81728880D+04 0.12185217D+01  1  2 15  2  5  2        1 0.454431784602D+02
0.149037691589D-03 0.000000000000D+00 0.000000000000D+00 0.102522207009D+01 0.000000000000D+00  5 -1 1 -13 13 21 2 0.33173331D-03 0.15152839D+00 0.10007410D+04 0.81758824D+04 0.81758824D+04 0.12185048D+01  1  2 12  2  5  2        1 0.289690703312D+01
-.199863736422D+00 0.000000000000D+00 0.000000000000D+00 0.102522207009D+01 0.000000000000D+00  5 -1 1 -13 13 21 2 0.33173331D-03 0.14578061D+00 0.94627564D+03 0.81728880D+04 0.81728880D+04 0.12185217D+01  1  2  4  2  5  2        1 -.414075785752D+04
-.104948270187D+01 0.000000000000D+00 -.162200540790D+00 0.102522207009D+01 0.000000000000D+00  5 -1 1 -13 13 21 2 0.33173331D-03 0.15080697D+00 0.94627564D+03 0.81728880D+04 0.81728880D+04 0.12185217D+01  1  2  5  2  5  2        1 -.274139040112D+05
0.105446821655D+01 0.000000000000D+00 0.162107395794D+00 0.102522207009D+01 0.000000000000D+00  5 -1 1 -13 13 21 2 0.33173331D-03 0.14578061D+00 0.94627564D+03 0.81728880D+04 0.81728880D+04 0.12185217D+01  1  2  6  2  5  2        1 0.290875000684D+05
0.199779647875D+00 0.000000000000D+00 0.000000000000D+00 0.102522207009D+01 0.271214941194D+01  5 -1 1 -13 13 21 2 0.33728483D-03 0.14903432D+00 0.10007410D+04 0.81758824D+04 0.81758824D+04 0.12185048D+01  1  2 11  2  5  2        1 0.390356460004D+04
0.375324629942D-05 0.000000000000D+00 0.000000000000D+00 0.102522207009D+01 0.000000000000D+00  5 -1 21 -13 13 -1 2 0.33173331D-03 0.15152839D+00 0.10007410D+04 0.81758824D+04 0.81758824D+04 0.12185048D+01  1  2 12  4  5  2        1 0.109100862880D+00
-.627689752464D-02 0.000000000000D+00 -.980462382528D-03 0.102522207009D+01 0.000000000000D+00  5 -1 21 -13 13 -1 2 0.33173331D-03 0.15080697D+00 0.94627564D+03 0.81728880D+04 0.81728880D+04 0.12185217D+01  1  2  5  4  5  2        1 -.247295916708D+03
0.131966363426D-02 0.000000000000D+00 0.000000000000D+00 0.102522207009D+01 0.108452810133D-01  5 -1 21 -13 13 -1 2 0.33728483D-03 0.14903432D+00 0.10007410D+04 0.81758824D+04 0.81758824D+04 0.12185048D+01  1  2 11  4  5  2        1 0.393516989865D+02
  </mgrwgt>
  </event>
  <event npLO=' -1 ' npNLO=' 0 '>
  5     66 0.12615437E+02 0.29005938E+02 0.75467711E-02 0.11662893E+00
       -1 -1    0    0    0  501 0.00000000E+00 0.00000000E+00 0.42291028E+01 0.42291028E+01 0.00000000E+00 0.0000E+00 0.9000E+01
        1 -1    0    0  501    0 0.00000000E+00 0.00000000E+00 -.49823664E+03 0.49823664E+03 0.00000000E+00 0.0000E+00 0.9000E+01
       23  2    1    2    0    0 0.00000000E+00 0.00000000E+00 -.49400754E+03 0.50246575E+03 0.91806186E+02 0.0000E+00 0.0000E+00
      -11  1    3    3    0    0 -.22586542E+02 -.87959438E+01 -.46035510E+03 0.46099278E+03 0.00000000E+00 0.0000E+00 0.9000E+01
       11  1    3    3    0    0 0.22586542E+02 0.87959438E+01 -.33652437E+02 0.41472967E+02 0.00000000E+00 0.0000E+00 0.9000E+01
#aMCatNLO 1  0  0  1  2 0.53649708D+02 0.00000000D+00  -5  5  0 0.00000000D+00 0.00000000D+00 0.00000000D+00 0.00000000D+00 0.00000000D+00
  <mgrwgt>
 0.4890007868D+03    5    2    0
 0.459030931852464D+02 0.000000000000000D+00 0.000000000000000D+00 0.459030931852464D+02
 0.459030931852464D+02 0.000000000000000D+00 0.000000000000000D+00 -.459030931852464D+02
 0.459030931852464D+02 -.225865421834024D+02 -.879594378599722D+01 -.389817065953298D+02
 0.459030931852464D+02 0.225865421834024D+02 0.879594378599722D+01 0.389817065953298D+02
 0.000000000000000D+00 0.000000000000000D+00 -.000000000000000D+00 -.000000000000000D+00
 0.648700375509938D+02 0.000000000000000D+00 0.000000000000000D+00 0.648700375509938D+02
 0.699893630974596D+02 0.000000000000000D+00 0.000000000000000D+00 -.699893630974596D+02
 0.495878332638645D+02 -.296463148856222D+02 0.777661702946639D+01 -.389817065953298D+02
 0.489934527912874D+02 0.155707128294259D+02 0.252653491824529D+02 0.389817065953298D+02
 0.362781145933015D+02 0.140756020561963D+02 -.330419662119193D+02 -.511932554646578D+01
0.300558148836D-01 0.000000000000D+00 0.000000000000D+00 0.909496410691D+00 0.000000000000D+00  5 -1 1 -11 11 21 0 0.65063119D-03 0.76651791D-01 0.58752051D+03 0.84283759D+04 0.84283759D+04 0.12171055D+01  1  2  2  1  5  1       -1 0.427914009270D+03
-.841894069104D-03 0.000000000000D+00 -.115422243031D-03 0.909496410691D+00 0.000000000000D+00  5 -1 1 -11 11 21 2 0.65063119D-03 0.76651791D-01 0.58752051D+03 0.84283759D+04 0.84283759D+04 0.12171055D+01  1  2  3  1  5  1       -1 -.242394955514D+02
0.847746279370D-03 0.000000000000D+00 0.000000000000D+00 0.909496410691D+00 0.000000000000D+00  5 -1 1 -11 11 21 2 0.65063119D-03 0.76651791D-01 0.58752051D+03 0.84283759D+04 0.84283759D+04 0.12171055D+01  1  2 15  1  5  1       -1 0.178792915453D+02
0.360706013734D-02 0.000000000000D+00 0.000000000000D+00 0.909496410691D+00 0.000000000000D+00  5 -1 1 -11 11 21 2 0.14019327D-02 0.76651791D-01 0.23156509D+04 0.97182700D+04 0.97182700D+04 0.12106206D+01  1  2 12  1  5  1       -1 0.264204111435D+02
0.299751618864D-03 0.000000000000D+00 0.000000000000D+00 0.909496410691D+00 0.000000000000D+00  5 21 1 -11 11 1 2 0.14019327D-02 0.76651791D-01 0.23156509D+04 0.97182700D+04 0.97182700D+04 0.12106206D+01  1  2 12  3  5  1       -1 0.410265704264D+02
  </mgrwgt>
  </event>
  <event npLO=' -1 ' npNLO=' 0 '>
  6     66 0.12615437E+02 0.92732139E+02 0.75467711E-02 0.11746774E+00
       21 -1    0    0  502  501 0.00000000E+00 0.00000000E+00 0.27702849E+01 0.27702849E+01 0.00000000E+00 0.0000E+00 0.9000E+01
        1 -1    0    0  501    0 0.00000000E+00 0.00000000E+00 -.10763776E+04 0.10763776E+04 0.00000000E+00 0.0000E+00 0.9000E+01
       23  2    1    2    0    0 -.44082899E+01 -.14585300E+02 -.92497277E+03 0.92973439E+03 0.92732139E+02 0.0000E+00 0.0000E+00
      -13  1    3    3    0    0 -.16781133E+01 -.42182152E+02 -.20879711E+03 0.21302202E+03 0.00000000E+00 0.0000E+00 0.9000E+01
       13  1    3    3    0    0 -.27301765E+01 0.27596852E+02 -.71617566E+03 0.71671237E+03 0.00000000E+00 0.0000E+00 0.9000E+01
        1  1    1    2  502    0 0.44082899E+01 0.14585300E+02 -.14863455E+03 0.14941350E+03 0.00000000E+00 0.0000E+00 0.9000E+01
#aMCatNLO 2  0  0  1  2 0.21466102D+02 0.00000000D+00  -5  5  0 0.00000000D+00 0.00000000D+00 0.00000000D+00 0.00000000D+00 0.00000000D+00
  <mgrwgt>
 0.8669706547D+02    2    2    0
 0.463660693020371D+02 0.000000000000000D+00 0.000000000000000D+00 0.463660693020371D+02
 0.463660693020371D+02 0.000000000000000D+00 0.000000000000000D+00 -.463660693020371D+02
 0.463660693020371D+02 0.653299633408188D+00 -.344684224245966D+02 0.310050550341370D+02
 0.463660693020371D+02 -.653299633408188D+00 0.344684224245966D+02 -.310050550341370D+02
 0.000000000000000D+00 0.000000000000000D+00 0.000000000000000D+00 0.000000000000000D+00
 0.546744806740877D+02 0.000000000000000D+00 0.000000000000000D+00 0.546744806740877D+02
 0.545386539825624D+02 0.000000000000000D+00 0.000000000000000D+00 -.545386539825624D+02
 0.523780819790350D+02 -.167811331803363D+01 -.421821522663850D+02 0.310050550341370D+02
 0.415975186996732D+02 -.273017654876824D+01 0.275968523624045D+02 -.310050550341370D+02
 0.152375339779418D+02 0.440828986680187D+01 0.145852999039805D+02 0.135826691525311D+00
-.756928654792D-03 0.000000000000D+00 0.000000000000D+00 0.600683514048D+00 0.000000000000D+00  5 21 1 -13 13 1 2 0.50132020D-03 0.14078201D+00 0.18140793D+04 0.88314135D+04 0.88314135D+04 0.12149663D+01  1  2 13  3  5  1       -1 -.195627253866D+03
0.113575300473D-02 0.000000000000D+00 0.000000000000D+00 0.600683514048D+00 0.651023411811D-03  5 21 1 -13 13 1 2 0.42619767D-03 0.16559656D+00 0.18140793D+04 0.88314135D+04 0.88314135D+04 0.12149663D+01  1  2  1  3  5  1       -1 0.282324319339D+03
  </mgrwgt>
  </event>
  <event npLO=' -1 ' npNLO=' 0 '>
  6     66 -.12615437E+02 0.89816652E+02 0.75467711E-02 0.11822117E+00
       -3 -1    0    0    0  501 0.00000000E+00 0.00000000E+00 0.12926063E+03 0.12926063E+03 0.00000000E+00 0.0000E+00 0.9000E+01
        3 -1    0    0  502    0 0.00000000E+00 0.00000000E+00 -.18715104E+02 0.18715104E+02 0.00000000E+00 0.0000E+00 0.9000E+01
       23  2    1    2    0    0 0.10421647E+01 -.67572125E+01 0.94594682E+02 0.13062133E+03 0.89816652E+02 0.0000E+00 0.0000E+00
      -11  1    3    3    0    0 -.27333684E+02 -.35184881E+02 0.71622867E+02 0.84350111E+02 0.00000000E+00 0.0000E+00 0.9000E+01
       11  1    3    3    0    0 0.28375849E+02 0.28427668E+02 0.22971815E+02 0.46271216E+02 0.00000000E+00 0.0000E+00 0.9000E+01
       21  1    1    2  502  501 -.10421647E+01 0.67572125E+01 0.15950846E+02 0.17354409E+02 0.00000000E+00 0.0000E+00 0.9000E+01
#aMCatNLO 2  0  0  2  1 0.14399591D+02 0.00000000D+00  -5  5  0 0.00000000D+00 0.00000000D+00 0.00000000D+00 0.00000000D+00 0.00000000D+00
  <mgrwgt>
 -.4366514962D+02    2    2    0
 0.449083261419251D+02 0.000000000000000D+00 0.000000000000000D+00 0.449083261419251D+02
 0.449083261419251D+02 0.000000000000000D+00 0.000000000000000D+00 -.449083261419251D+02
 0.449083261419251D+02 -.278667218968734D+02 -.317287565631938D+02 0.152803656548337D+02
 0.449083261419251D+02 0.278667218968734D+02 0.317287565631938D+02 -.152803656548337D+02
 0.000000000000000D+00 -.000000000000000D+00 0.000000000000000D+00 0.000000000000000D+00
 0.516985726536950D+02 0.000000000000000D+00 0.000000000000000D+00 0.516985726536950D+02
 0.467928999874150D+02 0.000000000000000D+00 0.000000000000000D+00 -.467928999874150D+02
 0.471019712908515D+02 -.273336839520507D+02 -.351848809369619D+02 0.152803656548337D+02
 0.429745353872394D+02 0.283758486055320D+02 0.284276684432543D+02 -.152803656548337D+02
 0.841496596301908D+01 -.104216465348125D+01 0.675721249370753D+01 0.490567266628002D+01
-.135493147993D-01 0.000000000000D+00 0.000000000000D+00 0.426623599235D+00 0.000000000000D+00  5 -3 3 -11 11 21 2 0.17274331D-01 0.33145957D-02 0.20957079D+04 0.81137771D+04 0.81137771D+04 0.12188565D+01  1  2 13  2  5  2        3 -.103135198556D+03
0.811451328958D-02 0.000000000000D+00 0.000000000000D+00 0.426623599235D+00 0.728820586830D-01  5 -3 3 -11 11 21 2 0.19886251D-01 0.28792467D-02 0.20957079D+04 0.81137771D+04 0.81137771D+04 0.12188565D+01  1  2  1  2  5  2        3 0.594700489382D+02
  </mgrwgt>
  </event>
  <event npLO=' -1 ' npNLO=' 0 '>
  5     66 0.12615437E+02 0.47394652E+02 0.75467711E-02 0.11689575E+00
       -1 -1    0    0    0  501 0.00000000E+00 0.00000000E+00 0.22025561E+01 0.22025561E+01 0.00000000E+00 0.0000E+00 0.9000E+01
        1 -1    0    0  501    0 0.00000000E+00 0.00000000E+00 -.10656734E+04 0.10656734E+04 0.00000000E+00 0.0000E+00 0.9000E+01
       23  2    1    2    0    0 0.00000000E+00 0.00000000E+00 -.10634708E+04 0.10678759E+04 0.96895932E+02 0.0000E+00 0.0000E+00
      -13  1    3    3    0    0 -.13341979E+02 0.19562450E+02 -.65915893E+02 0.70040008E+02 0.00000000E+00 0.0000E+00 0.9000E+01
       13  1    3    3    0    0 0.13341979E+02 -.19562450E+02 -.99755492E+03 0.99783591E+03 0.00000000E+00 0.0000E+00 0.9000E+01
#aMCatNLO 1  0  0  2  1 0.66985462D+01 0.00000000D+00  -5  5  0 0.00000000D+00 0.00000000D+00 0.00000000D+00 0.00000000D+00 0.00000000D+00
  <mgrwgt>
 0.1056105856D+04   11    2    0
 0.484479659053345D+02 0.000000000000000D+00 0.000000000000000D+00 0.484479659053345D+02
 0.484479659053345D+02 0.000000000000000D+00 0.000000000000000D+00 -.484479659053345D+02
 0.484479659053345D+02 -.133419792480566D+02 0.195624502963080D+02 0.422670974697028D+02
 0.484479659053345D+02 0.133419792480566D+02 -.195624502963080D+02 -.422670974697028D+02
 0.000000000000000D+00 -.000000000000000D+00 0.000000000000000D+00 -.000000000000000D+00
 0.499049915636482D+02 0.000000000000000D+00 0.000000000000000D+00 0.499049915636482D+02
 0.552661985498477D+02 0.000000000000000D+00 0.000000000000000D+00 -.552661985498477D+02
 0.472436404759262D+02 -.130459487609950D+02 0.165908787540234D+02 0.422670974697028D+02
 0.498412088490675D+02 0.136460455436885D+02 -.226146857604208D+02 -.422670974697028D+02
 0.808634078850224D+01 -.600096782693488D+00 0.602380700639738D+01 -.536120698619945D+01
0.465199348383D-01 0.000000000000D+00 0.000000000000D+00 0.104275002823D+00 0.000000000000D+00  5 -1 1 -13 13 21 0 0.33885479D-03 0.16394975D+00 0.56069787D+03 0.93888216D+04 0.93888216D+04 0.12121812D+01  1  2  2  2  5  2        1 0.521937420592D+03
-.973973533793D-03 0.000000000000D+00 -.178648798759D-03 0.104275002823D+00 0.000000000000D+00  5 -1 1 -13 13 21 2 0.33885479D-03 0.16394975D+00 0.56069787D+03 0.93888216D+04 0.93888216D+04 0.12121812D+01  1  2  3  2  5  2        1 -.243567393629D+02
0.173353746311D-02 0.000000000000D+00 0.000000000000D+00 0.104275002823D+00 0.000000000000D+00  5 -1 1 -13 13 21 2 0.33885479D-03 0.16394975D+00 0.56069787D+03 0.93888216D+04 0.93888216D+04 0.12121812D+01  1  2 15  2  5  2        1 0.285790435218D+02
0.106027541020D+00 0.000000000000D+00 0.000000000000D+00 0.104275002823D+00 0.000000000000D+00  5 -1 1 -13 13 21 2 0.33885479D-03 0.19264744D+00 0.71749663D+03 0.94254680D+04 0.94254680D+04 0.12120047D+01  1  2 12  2  5  2        1 0.130009310684D+04
-.125158331191D+00 0.000000000000D+00 0.000000000000D+00 0.104275002823D+00 0.000000000000D+00  5 -1 1 -13 13 21 2 0.33885479D-03 0.16394975D+00 0.56069787D+03 0.93888216D+04 0.93888216D+04 0.12121812D+01  1  2  4  2  5  2        1 -.206335627025D+04
-.185540530087D+00 0.000000000000D+00 -.419015991140D-01 0.104275002823D+00 0.000000000000D+00  5 -1 1 -13 13 21 2 0.33885479D-03 0.18987267D+00 0.56069787D+03 0.93888216D+04 0.93888216D+04 0.12121812D+01  1  2  5  2  5  2        1 -.382879262428D+04
0.190087143148D+00 0.000000000000D+00 0.414541610637D-01 0.104275002823D+00 0.000000000000D+00  5 -1 1 -13 13 21 2 0.33885479D-03 0.16394975D+00 0.56069787D+03 0.93888216D+04 0.93888216D+04 0.12121812D+01  1  2  6  2  5  2        1 0.505968902812D+04
0.936719627819D-02 0.000000000000D+00 0.000000000000D+00 0.104275002823D+00 0.224006027723D-01  5 -1 1 -13 13 21 2 0.34904552D-03 0.18702291D+00 0.71749663D+03 0.94254680D+04 0.94254680D+04 0.12120047D+01  1  2 11  2  5  2        1 0.116809275052D+03
0.256408382007D-02 0.000000000000D+00 0.000000000000D+00 0.104275002823D+00 0.000000000000D+00  5 -1 21 -13 13 -1 2 0.33885479D-03 0.19264744D+00 0.71749663D+03 0.94254680D+04 0.94254680D+04 0.12120047D+01  1  2 12  4  5  2        1 0.345896864605D+02
-.387909915049D-02 0.000000000000D+00 -.939211172728D-03 0.104275002823D+00 0.000000000000D+00  5 -1 21 -13 13 -1 2 0.33885479D-03 0.18987267D+00 0.56069787D+03 0.93888216D+04 0.93888216D+04 0.12121812D+01  1  2  5  4  5  2        1 -.922486471869D+02
0.221943066515D-03 0.000000000000D+00 0.000000000000D+00 0.104275002823D+00 0.479748088733D-03  5 -1 21 -13 13 -1 2 0.34904552D-03 0.18702291D+00 0.71749663D+03 0.94254680D+04 0.94254680D+04 0.12120047D+01  1  2 11  4  5  2        1 0.316257653538D+01
  </mgrwgt>
  </event>
  <event npLO=' -1 ' npNLO=' 0 '>
  5     66 0.12615437E+02 0.45324747E+02 0.75467711E-02 0.11828267E+00
       -1 -1    0    0    0  501 0.00000000E+00 0.00000000E+00 0.67431362E+01 0.67431362E+01 0.00000000E+00 0.0000E+00 0.9000E+01
        1 -1    0    0  501    0 0.00000000E+00 0.00000000E+00 -.29848671E+03 0.29848671E+03 0.00000000E+00 0.0000E+00 0.9000E+01
       23  2    1    2    0    0 0.00000000E+00 0.00000000E+00 -.29174357E+03 0.30522984E+03 0.89727064E+02 0.0000E+00 0.0000E+00
      -13  1    3    3    0    0 -.15049929E+02 0.18580013E+02 -.27500514E+03 0.27604265E+03 0.00000000E+00 0.0000E+00 0.9000E+01
       13  1    3    3    0    0 0.15049929E+02 -.18580013E+02 -.16738431E+02 0.29187194E+02 0.00000000E+00 0.0000E+00 0.9000E+01
#aMCatNLO 1  0  0  2  1 0.69833978D+01 0.00000000D+00  -5  5  0 0.00000000D+00 0.00000000D+00 0.00000000D+00 0.00000000D+00 0.00000000D+00
  <mgrwgt>
 0.5490741857D+03    8    2    0
 0.448635319639252D+02 0.000000000000000D+00 0.000000000000000D+00 0.448635319639252D+02
 0.448635319639252D+02 0.000000000000000D+00 0.000000000000000D+00 -.448635319639252D+02
 0.448635319639252D+02 -.150499287066750D+02 0.185800126226620D+02 -.379607597018798D+02
 0.448635319639252D+02 0.150499287066750D+02 -.185800126226620D+02 0.379607597018798D+02
 0.000000000000000D+00 -.000000000000000D+00 -.000000000000000D+00 0.000000000000000D+00
 0.482003784881009D+02 0.000000000000000D+00 0.000000000000000D+00 0.482003784881009D+02
 0.454338179362006D+02 0.000000000000000D+00 0.000000000000000D+00 -.454338179362006D+02
 0.454120386236390D+02 -.149602239194391D+02 0.199355379935246D+02 -.379607597018798D+02
 0.443556719234391D+02 0.151385838062772D+02 -.172403490387008D+02 0.379607597018798D+02
 0.386648587722336D+01 -.178359886838117D+00 -.269518895482379D+01 0.276656055190025D+01
0.221999822305D-01 0.000000000000D+00 0.000000000000D+00 0.460671813462D+00 0.000000000000D+00  5 -1 1 -13 13 21 0 0.10374056D-02 0.45921032D-01 0.57171722D+03 0.80509460D+04 0.80509460D+04 0.12192153D+01  1  2  2  2  5  2        1 0.321410916224D+03
-.639476226344D-03 0.000000000000D+00 -.852537771547D-04 0.460671813462D+00 0.000000000000D+00  5 -1 1 -13 13 21 2 0.10374056D-02 0.45921032D-01 0.57171722D+03 0.80509460D+04 0.80509460D+04 0.12192153D+01  1  2  3  2  5  2        1 -.186151615943D+02
0.670696975316D-03 0.000000000000D+00 0.000000000000D+00 0.460671813462D+00 0.000000000000D+00  5 -1 1 -13 13 21 2 0.10374056D-02 0.45921032D-01 0.57171722D+03 0.80509460D+04 0.80509460D+04 0.12192153D+01  1  2 15  2  5  2        1 0.144342804538D+02
0.213096865447D-01 0.000000000000D+00 0.000000000000D+00 0.460671813462D+00 0.000000000000D+00  5 -1 1 -13 13 21 2 0.10374056D-02 0.49963677D-01 0.63931092D+03 0.80582419D+04 0.80582419D+04 0.12191735D+01  1  2 12  2  5  2        1 0.412505346660D+03
-.102359031133D-01 0.000000000000D+00 0.000000000000D+00 0.460671813462D+00 0.000000000000D+00  5 -1 1 -13 13 21 2 0.10374056D-02 0.45921032D-01 0.57171722D+03 0.80509460D+04 0.80509460D+04 0.12192153D+01  1  2  4  2  5  2        1 -.220290088777D+03
0.484016142768D-03 0.000000000000D+00 0.000000000000D+00 0.460671813462D+00 0.502072983157D+00  5 -1 1 -13 13 21 2 0.11145654D-02 0.46504760D-01 0.63931092D+03 0.80582419D+04 0.80582419D+04 0.12191735D+01  1  2 11  2  5  2        1 0.928818536120D+01
0.314976500568D-03 0.000000000000D+00 0.000000000000D+00 0.460671813462D+00 0.000000000000D+00  5 -1 21 -13 13 -1 2 0.10374056D-02 0.49963677D-01 0.63931092D+03 0.80582419D+04 0.80582419D+04 0.12191735D+01  1  2 12  4  5  2        1 0.286893368512D+02
0.172701768513D-04 0.000000000000D+00 0.000000000000D+00 0.460671813462D+00 0.123102696518D-02  5 -1 21 -13 13 -1 2 0.11145654D-02 0.46504760D-01 0.63931092D+03 0.80582419D+04 0.80582419D+04 0.12191735D+01  1  2 11  4  5  2        1 0.165137054062D+01
  </mgrwgt>
  </event>
  <event npLO=' -1 ' npNLO=' 0 '>
  4     66 0.12615437E+02 0.44083888E+02 0.75467711E-02 0.10739237E+00
       -1 -1    0    0    0  501 0.00000000E+00 0.00000000E+00 0.88725565E+02 0.88725565E+02 0.00000000E+00 0.0000E+00 0.9000E+01
        1 -1    0    0  501    0 0.00000000E+00 0.00000000E+00 -.67694723E+02 0.67694723E+02 0.00000000E+00 0.0000E+00 0.9000E+01
      -11  1    1    2    0    0 -.60869194E+02 -.43534516E+02 0.30847981E+02 0.80943874E+02 0.00000000E+00 0.0000E+00 0.9000E+01
       11  1    1    2    0    0 0.60869194E+02 0.43534516E+02 -.98171390E+01 0.75476414E+02 0.00000000E+00 0.0000E+00 0.9000E+01
#aMCatNLO 1  0  0  2  1 0.93333118D+02 0.00000000D+00  -5  5  0 0.00000000D+00 0.00000000D+00 0.00000000D+00 0.00000000D+00 0.00000000D+00
  <mgrwgt>
 0.2394435085D+03    7    2    0
 0.775000166881006D+02 0.000000000000000D+00 0.000000000000000D+00 0.775000166881006D+02
 0.775000166881006D+02 0.000000000000000D+00 0.000000000000000D+00 -.775000166881006D+02
 0.775000166881006D+02 -.608691938082509D+02 -.435345163101218D+02 0.201479458365658D+02
 0.775000166881006D+02 0.608691938082509D+02 0.435345163101218D+02 -.201479458365658D+02
 0.000000000000000D+00 -.000000000000000D+00 0.000000000000000D+00 -.000000000000000D+00
 0.103689946636181D+03 0.000000000000000D+00 0.000000000000000D+00 0.103689946636181D+03
 0.195003390388681D+03 0.000000000000000D+00 0.000000000000000D+00 -.195003390388681D+03
 0.594606635425608D+02 -.271059572691226D+02 -.489376937341036D+02 0.201479458365658D+02
 0.116145153387661D+03 0.108606162337588D+03 0.358951032358413D+02 -.201479458365658D+02
 0.123087520094640D+03 -.815002050684653D+02 0.130425904982623D+02 -.913134437525007D+02
0.123250267392D+00 0.000000000000D+00 0.000000000000D+00 0.265211218540D-02 0.000000000000D+00  5 -1 1 -11 11 21 0 0.13650087D-01 0.10414573D-01 0.56003129D+04 0.24025010D+05 0.24025010D+05 0.11717515D+01  1  2  2  2  5  2        1 0.313394960627D+03
-.683704490239D-02 0.000000000000D+00 -.473313479327D-03 0.265211218540D-02 0.000000000000D+00  5 -1 1 -11 11 21 2 0.13650087D-01 0.10414573D-01 0.56003129D+04 0.24025010D+05 0.24025010D+05 0.11717515D+01  1  2  3  2  5  2        1 -.262759107521D+02
0.591984913646D-02 0.000000000000D+00 0.000000000000D+00 0.265211218540D-02 0.000000000000D+00  5 -1 1 -11 11 21 2 0.13650087D-01 0.10414573D-01 0.56003129D+04 0.24025010D+05 0.24025010D+05 0.11717515D+01  1  2 15  2  5  2        1 0.206673990035D+02
0.413296541012D-01 0.000000000000D+00 0.000000000000D+00 0.265211218540D-02 0.000000000000D+00  5 -1 1 -11 11 21 2 0.13650087D-01 0.35060385D-01 0.15985123D+05 0.30837403D+05 0.30837403D+05 0.11616937D+01  1  2 12  2  5  2        1 0.298301072853D+02
-.285066644765D-01 0.000000000000D+00 -.458120668073D-01 0.265211218540D-02 0.000000000000D+00  5 -1 1 -11 11 21 2 0.13650087D-01 0.34247511D-01 0.56003129D+04 0.24025010D+05 0.24025010D+05 0.11717515D+01  1  2  5  2  5  2        1 -.716008248967D+02
0.583045698200D-02 0.000000000000D+00 0.000000000000D+00 0.265211218540D-02 0.000000000000D+00  5 -1 21 -11 11 -1 2 0.13650087D-01 0.35060385D-01 0.15985123D+05 0.30837403D+05 0.30837403D+05 0.11616937D+01  1  2 12  4  5  2        1 0.250439337790D+02
-.209358536090D-02 0.000000000000D+00 -.631160979282D-02 0.265211218540D-02 0.000000000000D+00  5 -1 21 -11 11 -1 2 0.13650087D-01 0.34247511D-01 0.56003129D+04 0.24025010D+05 0.24025010D+05 0.11717515D+01  1  2  5  4  5  2        1 -.516161565956D+02
  </mgrwgt>
  </event>
  <event npLO=' -1 ' npNLO=' 0 '>
  5     66 0.12615437E+02 0.95769029E+02 0.75467711E-02 0.11179295E+00
       -5 -1    0    0    0  501 0.00000000E+00 0.00000000E+00 0.24113203E+02 0.24113203E+02 0.00000000E+00 0.0000E+00 0.9000E+01
        5 -1    0    0  501    0 0.00000000E+00 0.00000000E+00 -.95090096E+02 0.95090096E+02 0.00000000E+00 0.0000E+00 0.9000E+01
       23  2    1    2    0    0 0.00000000E+00 0.00000000E+00 -.70976893E+02 0.11920330E+03 0.95769029E+02 0.0000E+00 0.0000E+00
      -13  1    3    3    0    0 0.16183076E+02 0.57959056E+01 -.91117325E+02 0.92724600E+02 0.00000000E+00 0.0000E+00 0.9000E+01
       13  1    3    3    0    0 -.16183076E+02 -.57959056E+01 0.20140432E+02 0.26478699E+02 0.00000000E+00 0.0000E+00 0.9000E+01
#aMCatNLO 1  0  0  2  1 0.19421044D+03 0.00000000D+00  -5  5  0 0.00000000D+00 0.00000000D+00 0.00000000D+00 0.00000000D+00 0.00000000D+00
  <mgrwgt>
 0.3533960643D+02    3    2    0
 0.478845146923135D+02 0.000000000000000D+00 0.000000000000000D+00 0.478845146923135D+02
 0.478845146923135D+02 0.000000000000000D+00 0.000000000000000D+00 -.478845146923135D+02
 0.478845146923135D+02 0.161830759362458D+02 0.579590557624357D+01 -.446927542126389D+02
 0.478845146923135D+02 -.161830759362458D+02 -.579590557624357D+01 0.446927542126389D+02
 0.000000000000000D+00 0.000000000000000D+00 0.000000000000000D+00 0.000000000000000D+00
 0.201347307257012D+03 0.000000000000000D+00 0.000000000000000D+00 0.201347307257012D+03
 0.809952381923334D+02 0.000000000000000D+00 0.000000000000000D+00 -.809952381923334D+02
 0.514007005163587D+02 -.109267671206478D+02 -.229171441229525D+02 -.446927542126389D+02
 0.803619414077023D+02 -.512007902068650D+02 -.428844777267513D+02 0.446927542126389D+02
 0.150579903525284D+03 0.621275573275128D+02 0.658016218497037D+02 0.120352069064679D+03
0.246020928103D-01 0.000000000000D+00 0.000000000000D+00 0.828352777495D-01 0.000000000000D+00  5 -5 5 -13 13 21 0 0.37097235D-02 0.14629245D-01 0.29548447D+03 0.91717070D+04 0.91717070D+04 0.12132435D+01  1  2  2  2  5  2        5 0.336941437865D+02
0.377397597338D-03 0.000000000000D+00 -.944785142715D-04 0.828352777495D-01 0.000000000000D+00  5 -5 5 -13 13 21 2 0.37097235D-02 0.14629245D-01 0.29548447D+03 0.91717070D+04 0.91717070D+04 0.12132435D+01  1  2  3  2  5  2        5 0.106520648095D+00
0.763385533242D-03 0.000000000000D+00 0.000000000000D+00 0.828352777495D-01 0.000000000000D+00  5 -5 5 -13 13 21 2 0.37097235D-02 0.14629245D-01 0.29548447D+03 0.91717070D+04 0.91717070D+04 0.12132435D+01  1  2 15  2  5  2        5 0.153894199963D+01
  </mgrwgt>
  </event>
  <event npLO=' -1 ' npNLO=' 0 '>
  5     66 0.12615437E+02 0.44704998E+02 0.75467711E-02 0.11789840E+00
       -1 -1    0    0    0  501 0.00000000E+00 0.00000000E+00 0.42221626E+01 0.42221626E+01 0.00000000E+00 0.0000E+00 0.9000E+01
        1 -1    0    0  501    0 0.00000000E+00 0.00000000E+00 -.49096603E+03 0.49096603E+03 0.00000000E+00 0.0000E+00 0.9000E+01
       23  2    1    2    0    0 0.00000000E+00 0.00000000E+00 -.48674387E+03 0.49518820E+03 0.91059067E+02 0.0000E+00 0.0000E+00
      -11  1    3    3    0    0 -.90254363E+01 -.26602809E+02 -.48526256E+02 0.56071075E+02 0.00000000E+00 0.0000E+00 0.9000E+01
       11  1    3    3    0    0 0.90254363E+01 0.26602809E+02 -.43821761E+03 0.43911712E+03 0.00000000E+00 0.0000E+00 0.9000E+01
#aMCatNLO 1  0  0  1  2 0.44369870D+02 0.00000000D+00  -5  5  0 0.00000000D+00 0.00000000D+00 0.00000000D+00 0.00000000D+00 0.00000000D+00
  <mgrwgt>
 0.4079198605D+03    6    2    0
 0.455295334469913D+02 0.000000000000000D+00 0.000000000000000D+00 0.455295334469913D+02
 0.455295334469913D+02 0.000000000000000D+00 0.000000000000000D+00 -.455295334469913D+02
 0.455295334469913D+02 -.902543632540253D+01 -.266028088687826D+02 0.358297428867111D+02
 0.455295334469913D+02 0.902543632540253D+01 0.266028088687826D+02 -.358297428867111D+02
 0.000000000000000D+00 -.000000000000000D+00 0.000000000000000D+00 -.000000000000000D+00
 0.469913149822056D+02 0.000000000000000D+00 0.000000000000000D+00 0.469913149822056D+02
 0.725699399292800D+02 0.000000000000000D+00 0.000000000000000D+00 -.725699399292800D+02
 0.458504357157824D+02 -.381568186959208D+01 -.283537043764890D+02 0.358297428867111D+02
 0.458698347918586D+02 0.142362967612648D+02 0.248515416630393D+02 -.358297428867111D+02
 0.278409844038447D+02 -.104206148916727D+02 0.350216271344973D+01 -.255786249470744D+02
0.254779260603D-01 0.000000000000D+00 0.000000000000D+00 0.157812307352D+01 0.000000000000D+00  5 -1 1 -11 11 21 0 0.64956348D-03 0.75533236D-01 0.78916794D+03 0.82917537D+04 0.82917537D+04 0.12178567D+01  1  2  2  1  5  1       -1 0.370274760557D+03
-.101417056659D-02 0.000000000000D+00 -.978419445636D-04 0.157812307352D+01 0.000000000000D+00  5 -1 1 -11 11 21 2 0.64956348D-03 0.75533236D-01 0.78916794D+03 0.82917537D+04 0.82917537D+04 0.12178567D+01  1  2  3  1  5  1       -1 -.268211256868D+02
0.917098186593D-03 0.000000000000D+00 0.000000000000D+00 0.157812307352D+01 0.000000000000D+00  5 -1 1 -11 11 21 2 0.64956348D-03 0.75533236D-01 0.78916794D+03 0.82917537D+04 0.82917537D+04 0.12178567D+01  1  2 15  1  5  1       -1 0.197682515247D+02
0.302922095347D-02 0.000000000000D+00 0.000000000000D+00 0.157812307352D+01 0.000000000000D+00  5 -1 1 -11 11 21 2 0.10685862D-02 0.75533236D-01 0.11642786D+04 0.84126080D+04 0.84126080D+04 0.12171915D+01  1  2 12  1  5  1       -1 0.330182708290D+02
-.111115830390D-02 0.000000000000D+00 0.000000000000D+00 0.157812307352D+01 0.000000000000D+00  5 -1 1 -11 11 21 2 0.64956348D-03 0.75533236D-01 0.78916794D+03 0.82917537D+04 0.82917537D+04 0.12178567D+01  1  2  4  1  5  1       -1 -.239512596975D+02
0.170197686531D-03 0.000000000000D+00 0.000000000000D+00 0.157812307352D+01 0.000000000000D+00  5 21 1 -11 11 1 2 0.10685862D-02 0.75533236D-01 0.11642786D+04 0.84126080D+04 0.84126080D+04 0.12171915D+01  1  2 12  3  5  1       -1 0.356309630088D+02
  </mgrwgt>
  </event>
  <event npLO=' -1 ' npNLO=' 0 '>
  5     66 0.12615437E+02 0.42772643E+02 0.75467711E-02 0.11685288E+00
       -3 -1    0    0    0  501 0.00000000E+00 0.00000000E+00 0.22052297E+02 0.22052297E+02 0.00000000E+00 0.0000E+00 0.9000E+01
        3 -1    0    0  501    0 0.00000000E+00 0.00000000E+00 -.89285564E+02 0.89285564E+02 0.00000000E+00 0.0000E+00 0.9000E+01
       23  2    1    2    0    0 0.00000000E+00 0.00000000E+00 -.67233267E+02 0.11133786E+03 0.88745744E+02 0.0000E+00 0.0000E+00
      -13  1    3    3    0    0 -.15448483E+02 -.28667288E+02 0.41974585E+01 0.32834246E+02 0.00000000E+00 0.0000E+00 0.9000E+01
       13  1    3    3    0    0 0.15448483E+02 0.28667288E+02 -.71430725E+02 0.78503615E+02 0.00000000E+00 0.0000E+00 0.9000E+01
#aMCatNLO 1  0  0  1  2 0.72273159D+02 0.00000000D+00  -5  5  0 0.00000000D+00 0.00000000D+00 0.00000000D+00 0.00000000D+00 0.00000000D+00
  <mgrwgt>
 0.1657946844D+03    5    2    0
 0.443728717915401D+02 0.000000000000000D+00 0.000000000000000D+00 0.443728717915401D+02
 0.443728717915401D+02 0.000000000000000D+00 0.000000000000000D+00 -.443728717915401D+02
 0.443728717915401D+02 -.154484831793174D+02 -.286672878943052D+02 0.301410471495571D+02
 0.443728717915401D+02 0.154484831793174D+02 0.286672878943052D+02 -.301410471495571D+02
 0.000000000000000D+00 0.000000000000000D+00 -.000000000000000D+00 -.000000000000000D+00
 0.598129070930697D+02 0.000000000000000D+00 0.000000000000000D+00 0.598129070930697D+02
 0.844424906120180D+02 0.000000000000000D+00 0.000000000000000D+00 -.844424906120180D+02
 0.358443765924305D+02 -.156632261238504D+02 -.114455212821997D+02 0.301410471495571D+02
 0.614788807467980D+02 0.151651162291665D+02 0.513925024139033D+02 -.301410471495571D+02
 0.469321403658593D+02 0.498109894683857D+00 -.399469811317036D+02 -.246295835189484D+02
0.227617621665D-01 0.000000000000D+00 0.000000000000D+00 0.249436286915D+00 0.000000000000D+00  5 -3 3 -13 13 21 0 0.33926610D-02 0.13736241D-01 0.10604690D+04 0.78758070D+04 0.78758070D+04 0.12202323D+01  1  2  2  1  5  1       -3 0.165262720362D+03
-.111736482727D-02 0.000000000000D+00 -.874111600288D-04 0.249436286915D+00 0.000000000000D+00  5 -3 3 -13 13 21 2 0.33926610D-02 0.13736241D-01 0.10604690D+04 0.78758070D+04 0.78758070D+04 0.12202323D+01  1  2  3  1  5  1       -3 -.139742605338D+02
0.112400012385D-02 0.000000000000D+00 0.000000000000D+00 0.249436286915D+00 0.000000000000D+00  5 -3 3 -13 13 21 2 0.33926610D-02 0.13736241D-01 0.10604690D+04 0.78758070D+04 0.78758070D+04 0.12202323D+01  1  2 15  1  5  1       -3 0.121512353878D+02
0.327020814076D-03 0.000000000000D+00 0.000000000000D+00 0.249436286915D+00 0.000000000000D+00  5 -3 3 -13 13 21 2 0.87028469D-02 0.13736241D-01 0.31884534D+04 0.94718164D+04 0.94718164D+04 0.12117824D+01  1  2 12  1  5  1       -3 0.857316780209D+00
0.340542706021D-04 0.000000000000D+00 0.000000000000D+00 0.249436286915D+00 0.000000000000D+00  5 21 3 -13 13 3 2 0.87028469D-02 0.13736241D-01 0.31884534D+04 0.94718164D+04 0.94718164D+04 0.12117824D+01  1  2 12  3  5  1       -3 0.149767240199D+01
  </mgrwgt>
  </event>
  <event npLO=' -1 ' npNLO=' 0 '>
  6     66 0.12615437E+02 0.10223656E+03 0.75467711E-02 0.11553982E+00
       -1 -1    0    0    0  502 0.00000000E+00 0.00000000E+00 0.29894213E+02 0.29894213E+02 0.00000000E+00 0.0000E+00 0.9000E+01
        1 -1    0    0  501    0 0.00000000E+00 0.00000000E+00 -.37205081E+03 0.37205081E+03 0.00000000E+00 0.0000E+00 0.9000E+01
       23  2    1    2    0    0 -.23714365E+02 -.35308511E+01 -.35808208E+03 0.37316206E+03 0.10223656E+03 0.0000E+00 0.0000E+00
      -13  1    3    3    0    0 0.36903060E+02 0.13976237E+02 -.10061299E+03 0.10807472E+03 0.00000000E+00 0.0000E+00 0.9000E+01
       13  1    3    3    0    0 -.60617425E+02 -.17507088E+02 -.25746908E+03 0.26508734E+03 0.00000000E+00 0.0000E+00 0.9000E+01
       21  1    1    2  501  502 0.23714365E+02 0.35308511E+01 0.15925477E+02 0.28782961E+02 0.00000000E+00 0.0000E+00 0.9000E+01
#aMCatNLO 2  0  0  1  2 0.24251207D+02 0.00000000D+00  -5  5  0 0.00000000D+00 0.00000000D+00 0.00000000D+00 0.00000000D+00 0.00000000D+00
  <mgrwgt>
 0.1445823425D+03    2    2    0
 0.511182806131775D+02 0.000000000000000D+00 0.000000000000000D+00 0.511182806131775D+02
 0.511182806131775D+02 0.000000000000000D+00 0.000000000000000D+00 -.511182806131775D+02
 0.511182806131775D+02 0.474396809697231D+02 0.155450427476893D+02 0.109957686548488D+02
 0.511182806131775D+02 -.474396809697231D+02 -.155450427476893D+02 -.109957686548488D+02
 0.000000000000000D+00 0.000000000000000D+00 0.000000000000000D+00 0.000000000000000D+00
 0.208169849351652D+03 0.000000000000000D+00 0.000000000000000D+00 0.208169849351652D+03
 0.534283236028787D+02 0.000000000000000D+00 0.000000000000000D+00 -.534283236028787D+02
 0.409643497265712D+02 0.369030598805579D+02 0.139762366773691D+02 0.109957686548488D+02
 0.640458996436146D+02 -.606174249799999D+02 -.175070877544806D+02 -.109957686548488D+02
 0.156587923584345D+03 0.237143650994420D+02 0.353085107711148D+01 0.154741525748774D+03
-.263486399893D+00 0.000000000000D+00 0.000000000000D+00 0.180739440929D-01 0.000000000000D+00  5 -1 1 -13 13 21 2 0.48069441D-02 0.54763802D-01 0.40025689D+04 0.11027152D+05 0.11027152D+05 0.12049549D+01  1  2 13  1  5  1       -1 -.522913897206D+03
0.334069187517D+00 0.000000000000D+00 0.000000000000D+00 0.180739440929D-01 0.658627116346D-03  5 -1 1 -13 13 21 2 0.45991096D-02 0.57238587D-01 0.40025689D+04 0.11027152D+05 0.11027152D+05 0.12049549D+01  1  2  1  1  5  1       -1 0.667496239746D+03
  </mgrwgt>
  </event>
  <event npLO=' -1 ' npNLO=' 0 '>
  5     66 0.12615437E+02 0.42453451E+02 0.75467711E-02 0.11725733E+00
       -1 -1    0    0    0  501 0.00000000E+00 0.00000000E+00 0.14469127E+02 0.14469127E+02 0.00000000E+00 0.0000E+00 0.9000E+01
        1 -1    0    0  501    0 0.00000000E+00 0.00000000E+00 -.15171232E+03 0.15171232E+03 0.00000000E+00 0.0000E+00 0.9000E+01
       23  2    1    2    0    0 0.00000000E+00 0.00000000E+00 -.13724319E+03 0.16618144E+03 0.93704744E+02 0.0000E+00 0.0000E+00
      -13  1    3    3    0    0 0.34442809E+02 0.31571707E+02 -.74781651E+02 0.88178088E+02 0.00000000E+00 0.0000E+00 0.9000E+01
       13  1    3    3    0    0 -.34442809E+02 -.31571707E+02 -.62461538E+02 0.78003356E+02 0.00000000E+00 0.0000E+00 0.9000E+01
#aMCatNLO 1  0  0  1  2 0.17100947D+02 0.00000000D+00  -5  5  0 0.00000000D+00 0.00000000D+00 0.00000000D+00 0.00000000D+00 0.00000000D+00
  <mgrwgt>
 0.3919589341D+03    9    2    0
 0.468523721120407D+02 0.000000000000000D+00 0.000000000000000D+00 0.468523721120407D+02
 0.468523721120407D+02 0.000000000000000D+00 0.000000000000000D+00 -.468523721120407D+02
 0.468523721120407D+02 0.344428091524663D+02 0.315717067128440D+02 -.347347167111995D+01
 0.468523721120407D+02 -.344428091524663D+02 -.315717067128440D+02 0.347347167111995D+01
 0.000000000000000D+00 -.000000000000000D+00 0.000000000000000D+00 0.000000000000000D+00
 0.788667778440963D+02 0.000000000000000D+00 0.000000000000000D+00 0.788667778440963D+02
 0.496610872946975D+02 0.000000000000000D+00 0.000000000000000D+00 -.496610872946975D+02
 0.431826302368314D+02 0.357734599431455D+02 0.239360421209731D+02 -.347347167111995D+01
 0.519213334848470D+02 -.329830067864761D+02 -.399484809312931D+02 0.347347167111995D+01
 0.334239014171154D+02 -.279045315666936D+01 0.160124388103199D+02 0.292056905493988D+02
0.263742626866D-01 0.000000000000D+00 0.000000000000D+00 0.167132612130D+00 0.000000000000D+00  5 -1 1 -13 13 21 0 0.22260195D-02 0.23340356D-01 0.21830798D+04 0.87805791D+04 0.87805791D+04 0.12152300D+01  1  2  2  1  5  1       -1 0.308707078622D+03
-.146522328739D-02 0.000000000000D+00 -.101284113219D-03 0.167132612130D+00 0.000000000000D+00  5 -1 1 -13 13 21 2 0.22260195D-02 0.23340356D-01 0.21830798D+04 0.87805791D+04 0.87805791D+04 0.12152300D+01  1  2  3  1  5  1       -1 -.277638986891D+02
0.138678856121D-02 0.000000000000D+00 0.000000000000D+00 0.167132612130D+00 0.000000000000D+00  5 -1 1 -13 13 21 2 0.22260195D-02 0.23340356D-01 0.21830798D+04 0.87805791D+04 0.87805791D+04 0.12152300D+01  1  2 15  1  5  1       -1 0.239714048755D+02
0.454962475743D-01 0.000000000000D+00 0.000000000000D+00 0.167132612130D+00 0.000000000000D+00  5 -1 1 -13 13 21 2 0.39716972D-02 0.23340356D-01 0.30858851D+04 0.90447639D+04 0.90447639D+04 0.12138777D+01  1  2 12  1  5  1       -1 0.346650074328D+03
-.418636039294D-01 0.000000000000D+00 0.000000000000D+00 0.167132612130D+00 0.000000000000D+00  5 -1 1 -13 13 21 2 0.22260195D-02 0.23340356D-01 0.21830798D+04 0.87805791D+04 0.87805791D+04 0.12152300D+01  1  2  4  1  5  1       -1 -.723635475091D+03
-.478511496144D-01 0.000000000000D+00 -.885994442216D-02 0.167132612130D+00 0.000000000000D+00  5 -1 1 -13 13 21 2 0.39649565D-02 0.23340356D-01 0.21830798D+04 0.87805791D+04 0.87805791D+04 0.12152300D+01  1  2  5  1  5  1       -1 -.459790409969D+03
0.463257584386D-01 0.000000000000D+00 0.756416449043D-02 0.167132612130D+00 0.000000000000D+00  5 -1 1 -13 13 21 2 0.22260195D-02 0.23340356D-01 0.21830798D+04 0.87805791D+04 0.87805791D+04 0.12152300D+01  1  2  6  1  5  1       -1 0.982745925940D+03
0.289490055147D-02 0.000000000000D+00 0.000000000000D+00 0.167132612130D+00 0.000000000000D+00  5 21 1 -13 13 1 2 0.39716972D-02 0.23340356D-01 0.30858851D+04 0.90447639D+04 0.90447639D+04 0.12138777D+01  1  2 12  3  5  1       -1 0.361565556299D+03
-.257369257502D-02 0.000000000000D+00 -.562331276743D-03 0.167132612130D+00 0.000000000000D+00  5 21 1 -13 13 1 2 0.39649565D-02 0.23340356D-01 0.21830798D+04 0.87805791D+04 0.87805791D+04 0.12152300D+01  1  2  5  3  5  1       -1 -.420491322247D+03
  </mgrwgt>
  </event>
  <event npLO=' -1 ' npNLO=' 0 '>
  5     66 0.12615437E+02 0.36909480E+02 0.75467711E-02 0.11881948E+00
       -3 -1    0    0    0  501 0.00000000E+00 0.00000000E+00 0.25557714E+02 0.25557714E+02 0.00000000E+00 0.0000E+00 0.9000E+01
        3 -1    0    0  501    0 0.00000000E+00 0.00000000E+00 -.72905912E+02 0.72905912E+02 0.00000000E+00 0.0000E+00 0.9000E+01
       23  2    1    2    0    0 0.00000000E+00 0.00000000E+00 -.47348198E+02 0.98463626E+02 0.86332113E+02 0.0000E+00 0.0000E+00
      -13  1    3    3    0    0 -.28871803E+02 -.37869195E+01 -.60016966E+02 0.66708006E+02 0.00000000E+00 0.0000E+00 0.9000E+01
       13  1    3    3    0    0 0.28871803E+02 0.37869195E+01 0.12668768E+02 0.31755621E+02 0.00000000E+00 0.0000E+00 0.9000E+01
#aMCatNLO 1  0  0  1  2 0.12016386D+02 0.00000000D+00  -5  5  0 0.00000000D+00 0.00000000D+00 0.00000000D+00 0.00000000D+00 0.00000000D+00
  <mgrwgt>
 0.3366315927D+03    9    2    0
 0.431660567279133D+02 0.000000000000000D+00 0.000000000000000D+00 0.431660567279133D+02
 0.431660567279133D+02 0.000000000000000D+00 0.000000000000000D+00 -.431660567279133D+02
 0.431660567279133D+02 -.288718031234670D+02 -.378691951089620D+01 -.318651326445566D+02
 0.431660567279133D+02 0.288718031234670D+02 0.378691951089620D+01 0.318651326445566D+02
 0.000000000000000D+00 0.000000000000000D+00 -.000000000000000D+00 0.000000000000000D+00
 0.827027560367309D+02 0.000000000000000D+00 0.000000000000000D+00 0.827027560367309D+02
 0.444505687687349D+02 0.000000000000000D+00 0.000000000000000D+00 -.444505687687349D+02
 0.460786150637252D+02 -.332824300385360D+02 0.363233348865970D+00 -.318651326445566D+02
 0.410523035573492D+02 0.247095852659751D+02 0.770333336245243D+01 0.318651326445566D+02
 0.400224061843914D+02 0.857284477256095D+01 -.806656671131840D+01 0.382521872679960D+02
0.313546156410D-01 0.000000000000D+00 0.000000000000D+00 0.600166370039D-01 0.000000000000D+00  5 -3 3 -13 13 21 0 0.39319560D-02 0.11216294D-01 0.84792177D+03 0.74532338D+04 0.74532338D+04 0.12227947D+01  1  2  2  1  5  1       -3 0.253109913704D+03
-.141371170078D-02 0.000000000000D+00 -.120409979921D-03 0.600166370039D-01 0.000000000000D+00  5 -3 3 -13 13 21 2 0.39319560D-02 0.11216294D-01 0.84792177D+03 0.74532338D+04 0.74532338D+04 0.12227947D+01  1  2  3  1  5  1       -3 -.202228686962D+02
0.153454890803D-02 0.000000000000D+00 0.000000000000D+00 0.600166370039D-01 0.000000000000D+00  5 -3 3 -13 13 21 2 0.39319560D-02 0.11216294D-01 0.84792177D+03 0.74532338D+04 0.74532338D+04 0.12227947D+01  1  2 15  1  5  1       -3 0.185223246096D+02
0.122928718461D+00 0.000000000000D+00 0.000000000000D+00 0.600166370039D-01 0.000000000000D+00  5 -3 3 -13 13 21 2 0.77574895D-02 0.11216294D-01 0.12580578D+04 0.75917970D+04 0.75917970D+04 0.12219369D+01  1  2 12  1  5  1       -3 0.534479146065D+03
-.102507355075D+00 0.000000000000D+00 0.000000000000D+00 0.600166370039D-01 0.000000000000D+00  5 -3 3 -13 13 21 2 0.39319560D-02 0.11216294D-01 0.84792177D+03 0.74532338D+04 0.74532338D+04 0.12227947D+01  1  2  4  1  5  1       -3 -.123728510420D+04
-.113574478759D+00 0.000000000000D+00 -.991433240206D-02 0.600166370039D-01 0.000000000000D+00  5 -3 3 -13 13 21 2 0.77306458D-02 0.11216294D-01 0.84792177D+03 0.74532338D+04 0.74532338D+04 0.12227947D+01  1  2  5  1  5  1       -3 -.590578426792D+03
0.987414114910D-01 0.000000000000D+00 0.801246799486D-02 0.600166370039D-01 0.000000000000D+00  5 -3 3 -13 13 21 2 0.39319560D-02 0.11216294D-01 0.84792177D+03 0.74532338D+04 0.74532338D+04 0.12227947D+01  1  2  6  1  5  1       -3 0.140204436460D+04
0.904490974229D-02 0.000000000000D+00 0.000000000000D+00 0.600166370039D-01 0.000000000000D+00  5 21 3 -13 13 3 2 0.77574895D-02 0.11216294D-01 0.12580578D+04 0.75917970D+04 0.75917970D+04 0.12219369D+01  1  2 12  3  5  1       -3 0.669046365652D+03
-.772965697465D-02 0.000000000000D+00 -.725925091618D-03 0.600166370039D-01 0.000000000000D+00  5 21 3 -13 13 3 2 0.77306458D-02 0.11216294D-01 0.84792177D+03 0.74532338D+04 0.74532338D+04 0.12227947D+01  1  2  5  3  5  1       -3 -.692484122288D+03
  </mgrwgt>
  </event>
  <event npLO=' -1 ' npNLO=' 0 '>
  6     66 0.12615437E+02 0.91951559E+02 0.75467711E-02 0.11504373E+00
       21 -1    0    0  502  501 0.00000000E+00 0.00000000E+00 0.26900980E+02 0.26900980E+02 0.00000000E+00 0.0000E+00 0.9000E+01
        5 -1    0    0  501    0 0.00000000E+00 0.00000000E+00 -.26548817E+03 0.26548817E+03 0.00000000E+00 0.0000E+00 0.9000E+01
       23  2    1    2    0    0 -.54423773E+02 0.16510382E+02 -.18483300E+03 0.21413282E+03 0.91951559E+02 0.0000E+00 0.0000E+00
      -11  1    3    3    0    0 0.90906077E+01 -.63482338E+01 0.53605527E+01 0.12315630E+02 0.00000000E+00 0.0000E+00 0.9000E+01
       11  1    3    3    0    0 -.63514381E+02 0.22858616E+02 -.19019355E+03 0.20181719E+03 0.00000000E+00 0.0000E+00 0.9000E+01
        5  1    1    2  502    0 0.54423773E+02 -.16510382E+02 -.53754197E+02 0.78256332E+02 0.00000000E+00 0.0000E+00 0.9000E+01
#aMCatNLO 2  0  0  1  2 0.70713039D+02 0.00000000D+00  -5  5  0 0.00000000D+00 0.00000000D+00 0.00000000D+00 0.00000000D+00 0.00000000D+00
  <mgrwgt>
 0.1883981404D+02    2    2    0
 0.459757795115869D+02 0.000000000000000D+00 0.000000000000000D+00 0.459757795115869D+02
 0.459757795115869D+02 0.000000000000000D+00 0.000000000000000D+00 -.459757795115869D+02
 0.459757795115869D+02 0.307250175529840D+02 -.129114020288369D+02 0.316708272029106D+02
 0.459757795115869D+02 -.307250175529840D+02 0.129114020288369D+02 -.316708272029106D+02
 0.000000000000000D+00 0.000000000000000D+00 -.000000000000000D+00 0.000000000000000D+00
 0.992666655268644D+02 0.000000000000000D+00 0.000000000000000D+00 0.992666655268644D+02
 0.719465302340375D+02 0.000000000000000D+00 0.000000000000000D+00 -.719465302340375D+02
 0.335556331682922D+02 0.909060773568304D+01 -.634823381770920D+01 0.316708272029106D+02
 0.745629544572103D+02 -.635143806696200D+02 0.228586160960369D+02 -.316708272029106D+02
 0.630946081353994D+02 0.544237729339370D+02 -.165103822783277D+02 0.273201352928269D+02
-.208413374430D-03 0.000000000000D+00 0.000000000000D+00 0.109822904323D+01 0.000000000000D+00  5 21 5 -11 11 5 2 0.64764274D-02 0.26100635D-01 0.45875798D+04 0.11689629D+05 0.11689629D+05 0.12023652D+01  1  2 13  3  5  1       -5 -.205722173794D+01
0.257453022491D-02 0.000000000000D+00 0.000000000000D+00 0.109822904323D+01 0.593327866622D-03  5 21 5 -11 11 5 2 0.41386124D-02 0.40844334D-01 0.45875798D+04 0.11689629D+05 0.11689629D+05 0.12023652D+01  1  2  1  3  5  1       -5 0.208970357795D+02
  </mgrwgt>
  </event>
  <event npLO=' -1 ' npNLO=' 0 '>
  5     66 0.12615437E+02 0.44900873E+02 0.75467711E-02 0.11685253E+00
       -3 -1    0    0    0  501 0.00000000E+00 0.00000000E+00 0.35236983E+03 0.35236983E+03 0.00000000E+00 0.0000E+00 0.9000E+01
        3 -1    0    0  501    0 0.00000000E+00 0.00000000E+00 -.62731599E+01 0.62731599E+01 0.00000000E+00 0.0000E+00 0.9000E+01
       23  2    1    2    0    0 0.00000000E+00 0.00000000E+00 0.34609667E+03 0.35864299E+03 0.94031320E+02 0.0000E+00 0.0000E+00
      -13  1    3    3    0    0 -.26483725E+02 -.29009536E+02 0.27159131E+03 0.27441716E+03 0.00000000E+00 0.0000E+00 0.9000E+01
       13  1    3    3    0    0 0.26483725E+02 0.29009536E+02 0.74505360E+02 0.84225824E+02 0.00000000E+00 0.0000E+00 0.9000E+01
#aMCatNLO 1  0  0  1  2 0.27342651D+02 0.00000000D+00  -5  5  0 0.00000000D+00 0.00000000D+00 0.00000000D+00 0.00000000D+00 0.00000000D+00
  <mgrwgt>
 0.5030536126D+03    8    2    0
 0.470156598463724D+02 0.000000000000000D+00 0.000000000000000D+00 0.470156598463724D+02
 0.470156598463724D+02 0.000000000000000D+00 0.000000000000000D+00 -.470156598463724D+02
 0.470156598463724D+02 -.264837246124890D+02 -.290095361136258D+02 0.258366293450187D+02
 0.470156598463724D+02 0.264837246124890D+02 0.290095361136258D+02 -.258366293450187D+02
 0.000000000000000D+00 0.000000000000000D+00 0.000000000000000D+00 0.000000000000000D+00
 0.856887862898103D+02 0.000000000000000D+00 0.000000000000000D+00 0.856887862898103D+02
 0.529184323608099D+02 0.000000000000000D+00 0.000000000000000D+00 -.529184323608099D+02
 0.591377110976494D+02 -.363656994550558D+02 -.388236185987565D+02 0.258366293450187D+02
 0.381875015112083D+02 0.185520358723662D+02 0.211323406357907D+02 -.258366293450187D+02
 0.412820060417625D+02 0.178136635826895D+02 0.176912779629659D+02 0.327703539290004D+02
0.565859157691D-01 0.000000000000D+00 0.000000000000D+00 0.229698103325D+00 0.000000000000D+00  5 -3 3 -13 13 21 0 0.54210743D-01 0.96510152D-03 0.15429409D+04 0.88418891D+04 0.88418891D+04 0.12149122D+01  1  2  2  1  5  1       -3 0.189675701319D+03
-.302015438939D-02 0.000000000000D+00 -.217304815967D-03 0.229698103325D+00 0.000000000000D+00  5 -3 3 -13 13 21 2 0.54210743D-01 0.96510152D-03 0.15429409D+04 0.88418891D+04 0.88418891D+04 0.12149122D+01  1  2  3  1  5  1       -3 -.168194446500D+02
0.288710322911D-02 0.000000000000D+00 0.000000000000D+00 0.229698103325D+00 0.000000000000D+00  5 -3 3 -13 13 21 2 0.54210743D-01 0.96510152D-03 0.15429409D+04 0.88418891D+04 0.88418891D+04 0.12149122D+01  1  2 15  1  5  1       -3 0.142841835260D+02
0.519592127175D-01 0.000000000000D+00 0.000000000000D+00 0.229698103325D+00 0.000000000000D+00  5 -3 3 -13 13 21 2 0.11120678D+00 0.96510152D-03 0.28313869D+04 0.94721970D+04 0.94721970D+04 0.12117806D+01  1  2 12  1  5  1       -3 0.473479652101D+02
-.455582591532D-01 0.000000000000D+00 -.169807230517D-01 0.229698103325D+00 0.000000000000D+00  5 -3 3 -13 13 21 2 0.10670538D+00 0.96510152D-03 0.15429409D+04 0.88418891D+04 0.88418891D+04 0.12149122D+01  1  2  5  1  5  1       -3 -.761638748228D+02
0.487194648718D-01 0.000000000000D+00 0.137141215848D-01 0.229698103325D+00 0.000000000000D+00  5 -3 3 -13 13 21 2 0.54210743D-01 0.96510152D-03 0.15429409D+04 0.88418891D+04 0.88418891D+04 0.12149122D+01  1  2  6  1  5  1       -3 0.359499906119D+03
0.403698745338D-02 0.000000000000D+00 0.000000000000D+00 0.229698103325D+00 0.000000000000D+00  5 21 3 -13 13 3 2 0.11120678D+00 0.96510152D-03 0.28313869D+04 0.94721970D+04 0.94721970D+04 0.12117806D+01  1  2 12  3  5  1       -3 0.598018328688D+02
-.233600733515D-02 0.000000000000D+00 -.124532049798D-02 0.229698103325D+00 0.000000000000D+00  5 21 3 -13 13 3 2 0.10670538D+00 0.96510152D-03 0.15429409D+04 0.88418891D+04 0.88418891D+04 0.12149122D+01  1  2  5  3  5  1       -3 -.745726569439D+02
  </mgrwgt>
  </event>
  <event npLO=' -1 ' npNLO=' 0 '>
  5     66 0.12615437E+02 0.43769493E+02 0.75467711E-02 0.11789631E+00
       -1 -1    0    0    0  501 0.00000000E+00 0.00000000E+00 0.23665563E+02 0.23665563E+02 0.00000000E+00 0.0000E+00 0.9000E+01
        1 -1    0    0  501    0 0.00000000E+00 0.00000000E+00 -.87667895E+02 0.87667895E+02 0.00000000E+00 0.0000E+00 0.9000E+01
       23  2    1    2    0    0 0.00000000E+00 0.00000000E+00 -.64002332E+02 0.11133346E+03 0.91097971E+02 0.0000E+00 0.0000E+00
      -13  1    3    3    0    0 -.12164034E+02 -.43521305E+02 -.38983614E+02 0.59680733E+02 0.00000000E+00 0.0000E+00 0.9000E+01
       13  1    3    3    0    0 0.12164034E+02 0.43521305E+02 -.25018718E+02 0.51652725E+02 0.00000000E+00 0.0000E+00 0.9000E+01
#aMCatNLO 1  0  0  1  2 0.26747501D+02 0.00000000D+00  -5  5  0 0.00000000D+00 0.00000000D+00 0.00000000D+00 0.00000000D+00 0.00000000D+00
  <mgrwgt>
 0.3230590077D+03    6    2    0
 0.455489857075162D+02 0.000000000000000D+00 0.000000000000000D+00 0.455489857075162D+02
 0.455489857075162D+02 0.000000000000000D+00 0.000000000000000D+00 -.455489857075162D+02
 0.455489857075162D+02 -.121640338348635D+02 -.435213054664122D+02 -.571334843564103D+01
 0.455489857075162D+02 0.121640338348635D+02 0.435213054664122D+02 0.571334843564103D+01
 0.000000000000000D+00 -.000000000000000D+00 -.000000000000000D+00 -.000000000000000D+00
 0.479878855814132D+02 0.000000000000000D+00 0.000000000000000D+00 0.479878855814132D+02
 0.594994848519499D+02 0.000000000000000D+00 0.000000000000000D+00 -.594994848519499D+02
 0.409000936004532D+02 -.909443549592940D+01 -.394647507174335D+02 -.571334843564103D+01
 0.508309544349669D+02 0.155862530942960D+02 0.480438580143517D+02 0.571334843564103D+01
 0.157563223979430D+02 -.649181759836661D+01 -.857910729691822D+01 -.115115992705367D+02
0.228605029549D-01 0.000000000000D+00 0.000000000000D+00 0.791011106833D+00 0.000000000000D+00  5 -1 1 -13 13 21 0 0.36408559D-02 0.13487368D-01 0.20420677D+04 0.82988404D+04 0.82988404D+04 0.12178174D+01  1  2  2  1  5  1       -1 0.266690628737D+03
-.126993085496D-02 0.000000000000D+00 -.877903506554D-04 0.791011106833D+00 0.000000000000D+00  5 -1 1 -13 13 21 2 0.36408559D-02 0.13487368D-01 0.20420677D+04 0.82988404D+04 0.82988404D+04 0.12178174D+01  1  2  3  1  5  1       -1 -.241015878938D+02
0.125285544415D-02 0.000000000000D+00 0.000000000000D+00 0.791011106833D+00 0.000000000000D+00  5 -1 1 -13 13 21 2 0.36408559D-02 0.13487368D-01 0.20420677D+04 0.82988404D+04 0.82988404D+04 0.12178174D+01  1  2 15  1  5  1       -1 0.216764066359D+02
0.618655015209D-02 0.000000000000D+00 0.000000000000D+00 0.791011106833D+00 0.000000000000D+00  5 -1 1 -13 13 21 2 0.50106133D-02 0.13487368D-01 0.25891000D+04 0.84145852D+04 0.84145852D+04 0.12171807D+01  1  2 12  1  5  1       -1 0.678825683936D+02
-.303542210974D-02 0.000000000000D+00 0.000000000000D+00 0.791011106833D+00 0.000000000000D+00  5 -1 1 -13 13 21 2 0.36408559D-02 0.13487368D-01 0.20420677D+04 0.82988404D+04 0.82988404D+04 0.12178174D+01  1  2  4  1  5  1       -1 -.525176661599D+02
0.250166251228D-03 0.000000000000D+00 0.000000000000D+00 0.791011106833D+00 0.000000000000D+00  5 21 1 -13 13 1 2 0.50106133D-02 0.13487368D-01 0.25891000D+04 0.84145852D+04 0.84145852D+04 0.12171807D+01  1  2 12  3  5  1       -1 0.434286579430D+02
  </mgrwgt>
  </event>
  <event npLO=' -1 ' npNLO=' 0 '>
  5     66 0.12615437E+02 0.69390234E+02 0.75467711E-02 0.11750684E+00
       -1 -1    0    0    0  501 0.00000000E+00 0.00000000E+00 0.11757750E+02 0.11757750E+02 0.00000000E+00 0.0000E+00 0.9000E+01
        1 -1    0    0  501    0 0.00000000E+00 0.00000000E+00 -.17008423E+03 0.17008423E+03 0.00000000E+00 0.0000E+00 0.9000E+01
       23  2    1    2    0    0 0.00000000E+00 0.00000000E+00 -.15832648E+03 0.18184198E+03 0.89438423E+02 0.0000E+00 0.0000E+00
      -11  1    3    3    0    0 -.33092237E+02 0.49703286E+01 -.13947656E+03 0.14343469E+03 0.00000000E+00 0.0000E+00 0.9000E+01
       11  1    3    3    0    0 0.33092237E+02 -.49703286E+01 -.18849921E+02 0.38407289E+02 0.00000000E+00 0.0000E+00 0.9000E+01
#aMCatNLO 1  0  0  1  2 0.55423492D+02 0.00000000D+00  -5  5  0 0.00000000D+00 0.00000000D+00 0.00000000D+00 0.00000000D+00 0.00000000D+00
  <mgrwgt>
 0.3582511101D+03    5    2    0
 0.447192116666154D+02 0.000000000000000D+00 0.000000000000000D+00 0.447192116666154D+02
 0.447192116666154D+02 0.000000000000000D+00 0.000000000000000D+00 -.447192116666154D+02
 0.447192116666154D+02 -.330922368871198D+02 0.497032856403306D+01 -.296649217739716D+02
 0.447192116666154D+02 0.330922368871198D+02 -.497032856403306D+01 0.296649217739716D+02
 0.000000000000000D+00 0.000000000000000D+00 0.000000000000000D+00 -.000000000000000D+00
 0.539270889759813D+02 0.000000000000000D+00 0.000000000000000D+00 0.539270889759813D+02
 0.750379007457623D+02 0.000000000000000D+00 0.000000000000000D+00 -.750379007457623D+02
 0.532408157915141D+02 -.438599567090536D+02 -.555707474936457D+01 -.296649217739716D+02
 0.405270115113358D+02 0.237220124100948D+02 -.141314261629672D+02 0.296649217739716D+02
 0.351971624188937D+02 0.201379442989588D+02 0.196885009123318D+02 -.211108117697810D+02
0.245437250586D-01 0.000000000000D+00 0.000000000000D+00 0.311563428069D+00 0.000000000000D+00  5 -1 1 -11 11 21 0 0.18088847D-02 0.26166804D-01 0.11198003D+04 0.79992316D+04 0.79992316D+04 0.12195130D+01  1  2  2  1  5  1       -1 0.330644337058D+03
-.122416144910D-02 0.000000000000D+00 -.942543667361D-04 0.311563428069D+00 0.000000000000D+00  5 -1 1 -11 11 21 2 0.18088847D-02 0.26166804D-01 0.11198003D+04 0.79992316D+04 0.79992316D+04 0.12195130D+01  1  2  3  1  5  1       -1 -.282392787096D+02
0.122590633272D-02 0.000000000000D+00 0.000000000000D+00 0.311563428069D+00 0.000000000000D+00  5 -1 1 -11 11 21 2 0.18088847D-02 0.26166804D-01 0.11198003D+04 0.79992316D+04 0.79992316D+04 0.12195130D+01  1  2 15  1  5  1       -1 0.245612667236D+02
0.186125707681D-02 0.000000000000D+00 0.000000000000D+00 0.311563428069D+00 0.000000000000D+00  5 -1 1 -11 11 21 2 0.36602459D-02 0.26166804D-01 0.24993048D+04 0.87924054D+04 0.87924054D+04 0.12151685D+01  1  2 12  1  5  1       -1 0.138137625867D+02
0.141888076680D-03 0.000000000000D+00 0.000000000000D+00 0.311563428069D+00 0.000000000000D+00  5 21 1 -11 11 1 2 0.36602459D-02 0.26166804D-01 0.24993048D+04 0.87924054D+04 0.87924054D+04 0.12151685D+01  1  2 12  3  5  1       -1 0.174710224536D+02
  </mgrwgt>
  </event>
  <event npLO=' -1 ' npNLO=' 0 '>
  4     66 0.12615437E+02 0.70618389E+02 0.75467711E-02 0.11165805E+00
       -1 -1    0    0    0  501 0.00000000E+00 0.00000000E+00 0.12672821E+03 0.12672821E+03 0.00000000E+00 0.0000E+00 0.9000E+01
        1 -1    0    0  501    0 0.00000000E+00 0.00000000E+00 -.34697628E+02 0.34697628E+02 0.00000000E+00 0.0000E+00 0.9000E+01
      -13  1    1    2    0    0 -.70540888E+01 -.16432227E+02 0.12373795E+03 0.12502343E+03 0.00000000E+00 0.0000E+00 0.9000E+01
       13  1    1    2    0    0 0.70540888E+01 0.16432227E+02 -.31707366E+02 0.36402408E+02 0.00000000E+00 0.0000E+00 0.9000E+01
#aMCatNLO 1  0  0  1  2 0.83385069D+01 0.00000000D+00  -5  5  0 0.00000000D+00 0.00000000D+00 0.00000000D+00 0.00000000D+00 0.00000000D+00
  <mgrwgt>
 0.2037430251D+03    9    2    0
 0.663111481027947D+02 0.000000000000000D+00 0.000000000000000D+00 0.663111481027947D+02
 0.663111481027947D+02 0.000000000000000D+00 0.000000000000000D+00 -.663111481027947D+02
 0.663111481027947D+02 -.705408880125710D+01 -.164322269326200D+02 0.638544447311981D+02
 0.663111481027947D+02 0.705408880125710D+01 0.164322269326200D+02 -.638544447311981D+02
 0.000000000000000D+00 -.000000000000000D+00 -.000000000000000D+00 0.000000000000000D+00
 0.135685856894774D+03 0.000000000000000D+00 0.000000000000000D+00 0.135685856894774D+03
 0.666903446865872D+02 0.000000000000000D+00 0.000000000000000D+00 -.666903446865872D+02
 0.654740097855228D+02 -.373735252297545D+01 -.139817038154908D+02 0.638544447311981D+02
 0.674082641483761D+02 0.104195059152224D+02 0.189187171882838D+02 -.638544447311981D+02
 0.694939276474624D+02 -.668215339224691D+01 -.493701337279304D+01 0.689955122081871D+02
0.637328770132D-01 0.000000000000D+00 0.000000000000D+00 0.844511881672D-02 0.000000000000D+00  5 -1 1 -13 13 21 0 0.19496648D-01 0.53380966D-02 0.31977825D+03 0.17588673D+05 0.17588673D+05 0.11847061D+01  1  2  2  1  5  1       -1 0.227747995903D+03
0.385322289892D-02 0.000000000000D+00 -.244751028983D-03 0.844511881672D-02 0.000000000000D+00  5 -1 1 -13 13 21 2 0.19496648D-01 0.53380966D-02 0.31977825D+03 0.17588673D+05 0.17588673D+05 0.11847061D+01  1  2  3  1  5  1       -1 0.144065163116D+02
0.222455735908D-02 0.000000000000D+00 0.000000000000D+00 0.844511881672D-02 0.000000000000D+00  5 -1 1 -13 13 21 2 0.19496648D-01 0.53380966D-02 0.31977825D+03 0.17588673D+05 0.17588673D+05 0.11847061D+01  1  2 15  1  5  1       -1 0.111572167423D+02
0.134254374580D+01 0.000000000000D+00 0.000000000000D+00 0.844511881672D-02 0.000000000000D+00  5 -1 1 -13 13 21 2 0.40122169D-01 0.53380966D-02 0.49237334D+03 0.17657699D+05 0.17657699D+05 0.11845406D+01  1  2 12  1  5  1       -1 0.209125609577D+04
-.128557475003D+01 0.000000000000D+00 -.195145165471D-01 0.844511881672D-02 0.000000000000D+00  5 -1 1 -13 13 21 2 0.39979476D-01 0.53380966D-02 0.31977825D+03 0.17588673D+05 0.17588673D+05 0.11847061D+01  1  2  5  1  5  1       -1 -.213748576328D+04
0.273934669177D-02 0.000000000000D+00 0.000000000000D+00 0.844511881672D-02 0.116927380670D-02  5 -1 1 -13 13 21 2 0.39894037D-01 0.53686222D-02 0.49237334D+03 0.17657699D+05 0.17657699D+05 0.11845406D+01  1  2 11  1  5  1       -1 0.427518160365D+01
0.104768269226D+00 0.000000000000D+00 0.000000000000D+00 0.844511881672D-02 0.000000000000D+00  5 21 1 -13 13 1 2 0.40122169D-01 0.53380966D-02 0.49237334D+03 0.17657699D+05 0.17657699D+05 0.11845406D+01  1  2 12  3  5  1       -1 0.159692462753D+04
-.986372483933D-01 0.000000000000D+00 -.151537135681D-02 0.844511881672D-02 0.000000000000D+00  5 21 1 -13 13 1 2 0.39979476D-01 0.53380966D-02 0.31977825D+03 0.17588673D+05 0.17588673D+05 0.11847061D+01  1  2  5  3  5  1       -1 -.160781796752D+04
0.214344786795D-03 0.000000000000D+00 0.000000000000D+00 0.844511881672D-02 0.914345044510D-04  5 21 1 -13 13 1 2 0.39894037D-01 0.53686222D-02 0.49237334D+03 0.17657699D+05 0.17657699D+05 0.11845406D+01  1  2 11  3  5  1       -1 0.327912204725D+01
  </mgrwgt>
  </event>
</LesHouchesEvents>
