<LesHouchesEvents version="3.0">
  <!--
  <scalesfunctionalform>
    muR  FxFx merging scale
    muF1 FxFx merging scale
    muF2 FxFx merging scale
    QES  H_T/2 := sum_i mT(i)/2, i=final state
  </scalesfunctionalform>
PYTHIA8   
  -->
  <header>
       22
  </header>
  <init>
   2212   2212 0.65000000D+04 0.65000000D+04 -1 -1 306000 306000 -4   1
 0.14125085D+03 0.27178991D+01 0.19695947D+02     66
  </init>
  <event npLO=' -1 ' npNLO=' 1 '>
  6     66 -.19695947E+02 0.11018110E+02 0.75467711E-02 0.17170995E+00
       21 -1    0    0  501  502 0.00000000E+00 0.00000000E+00 0.19271657E+03 0.19271657E+03 0.00000000E+00 0.0000E+00 0.9000E+01
       -3 -1    0    0    0  501 0.00000000E+00 0.00000000E+00 -.38601057E+03 0.38601057E+03 0.00000000E+00 0.0000E+00 0.9000E+01
       23  2    1    2    0    0 -.10252646E+02 -.40350960E+01 -.38053359E+03 0.39116365E+03 0.89898790E+02 0.0000E+00 0.0000E+00
      -13  1    3    3    0    0 -.13246287E+01 -.13013684E+02 -.37803041E+03 0.37825666E+03 0.00000000E+00 0.0000E+00 0.9000E+01
       13  1    3    3    0    0 -.89280168E+01 0.89785878E+01 -.25031779E+01 0.12906991E+02 0.00000000E+00 0.0000E+00 0.9000E+01
       -3  1    1    2    0  502 0.10252646E+02 0.40350960E+01 0.18723959E+03 0.18756349E+03 0.00000000E+00 0.0000E+00 0.9000E+01
#aMCatNLO 1  0  0  2  1 0.13072798D+02 0.00000000D+00  -5  6  0 0.00000000D+00 0.00000000D+00 0.00000000D+00 0.00000000D+00 0.00000000D+00
  <mgrwgt>
 -.2011456214D+04    7    4    0
 0.272746463041512D+03 0.000000000000000D+00 0.000000000000000D+00 0.272746463041512D+03
 0.272746463041512D+03 0.000000000000000D+00 0.000000000000000D+00 -.272746463041512D+03
 0.267347895108169D+03 -.132462871725618D+01 -.130136837716688D+02 -.267027688474848D+03
 0.128063564837842D+02 -.892801682768488D+01 0.897858781404927D+01 0.191787454744666D+01
 0.265338674491072D+03 0.102526455449411D+02 0.403509595761950D+01 0.265109813927402D+03
 0.000000000000000D+00 -.000000000000000D+00 0.000000000000000D+00 -.000000000000000D+00
 0.276490824585912D+03 0.000000000000000D+00 0.000000000000000D+00 0.276490824585912D+03
 0.280626883882479D+03 0.000000000000000D+00 0.000000000000000D+00 -.280626883882479D+03
 0.267639128580882D+03 0.129764382718396D+00 -.180803732405644D+02 -.267027688474848D+03
 0.125902128176659D+02 -.885897478830913D+01 0.873806510129554D+01 0.191787454744666D+01
 0.265369512549637D+03 0.116954063805397D+02 -.991070030097528D+00 0.265109813927402D+03
 0.115188545202058D+02 -.296619597494893D+01 0.103333781693664D+02 -.413605929656771D+01
 0.272746463041512D+03 0.000000000000000D+00 0.000000000000000D+00 0.272746463041512D+03
 0.272746463041512D+03 0.000000000000000D+00 0.000000000000000D+00 -.272746463041512D+03
 0.267347895108169D+03 -.132462871725618D+01 -.130136837716688D+02 -.267027688474848D+03
 0.128063564837842D+02 -.892801682768488D+01 0.897858781404927D+01 0.191787454744666D+01
 0.000000000000000D+00 -.000000000000000D+00 0.000000000000000D+00 -.000000000000000D+00
 0.265338674491072D+03 0.102526455449411D+02 0.403509595761950D+01 0.265109813927402D+03
 0.276490824585912D+03 0.000000000000000D+00 0.000000000000000D+00 0.276490824585912D+03
 0.280626883882479D+03 0.000000000000000D+00 0.000000000000000D+00 -.280626883882479D+03
 0.267639128580882D+03 0.129764382718396D+00 -.180803732405644D+02 -.267027688474848D+03
 0.125902128176659D+02 -.885897478830913D+01 0.873806510129554D+01 0.191787454744666D+01
 0.115188545202058D+02 -.296619597494893D+01 0.103333781693664D+02 -.413605929656771D+01
 0.265369512549637D+03 0.116954063805397D+02 -.991070030097528D+00 0.265109813927402D+03
0.476156310078D+00 0.000000000000D+00 0.000000000000D+00 0.511164673859D+00 0.000000000000D+00  6 21 -3 -13 13 -3 21 2 0.29648703D-01 0.59386242D-01 0.33784217D+03 0.12139874D+03 0.25801107D+04 0.14794620D+01  1  2  2  2  6  2       -3 0.229672536005D+03
0.282760710333D+00 0.231172621151D-01 0.104897430233D-02 0.511164673859D+00 0.000000000000D+00  6 21 -3 -13 13 -3 21 4 0.29648703D-01 0.59386242D-01 0.33784217D+03 0.12139874D+03 0.25801107D+04 0.14794620D+01  1  2  3  2  6  2       -3 0.275800370393D+03
0.379700017499D-01 0.000000000000D+00 0.000000000000D+00 0.511164673859D+00 0.000000000000D+00  6 21 -3 -13 13 -3 21 4 0.29648703D-01 0.59386242D-01 0.33784217D+03 0.12139874D+03 0.25801107D+04 0.14794620D+01  1  2 15  2  6  2       -3 0.400873870206D+02
-.214507754706D+01 0.000000000000D+00 0.000000000000D+00 0.511164673859D+00 0.000000000000D+00  6 21 -3 -13 13 -3 21 4 0.29648703D-01 0.59386242D-01 0.33784217D+03 0.12139874D+03 0.25801107D+04 0.14794620D+01  1  2  4  2  6  2       -3 -.226469712550D+04
-.908152126707D+01 0.000000000000D+00 -.477815040741D+01 0.511164673859D+00 0.000000000000D+00  6 21 -3 -13 13 -3 21 4 0.29648703D-01 0.61801374D-01 0.33784217D+03 0.12139874D+03 0.25801107D+04 0.14794620D+01  1  2  5  2  6  2       -3 -.181849643621D+05
0.926842164277D+01 0.000000000000D+00 0.477435653412D+01 0.511164673859D+00 0.000000000000D+00  6 21 -3 -13 13 -3 21 4 0.29648703D-01 0.59386242D-01 0.33784217D+03 0.12139874D+03 0.25801107D+04 0.14794620D+01  1  2  6  2  6  2       -3 0.200328500791D+05
-.612900598823D-01 0.000000000000D+00 -.336716544541D-01 0.511164615524D+00 0.000000000000D+00  6 21 21 -13 13 3 -3 4 0.29648703D-01 0.61801374D-01 0.33784217D+03 0.12139886D+03 0.25801110D+04 0.14794619D+01  3  4  5 10  5  2       -3 -.214020509914D+04
  </mgrwgt>
  </event>
  <event npLO=' -1 ' npNLO=' 1 '>
  7     66 -.19695947E+02 0.32555340E+02 0.75467711E-02 0.13401042E+00
       21 -1    0    0  501  502 0.00000000E+00 0.00000000E+00 0.13418932E+04 0.13418932E+04 0.00000000E+00 0.0000E+00 0.9000E+01
       -1 -1    0    0    0  503 0.00000000E+00 0.00000000E+00 -.66155606E+01 0.66155606E+01 0.00000000E+00 0.0000E+00 0.9000E+01
       23  2    1    2    0    0 -.43577993E+02 0.69684740E+00 0.37793103E+03 0.38996980E+03 0.85703310E+02 0.0000E+00 0.0000E+00
      -11  1    3    3    0    0 -.22430562E+02 -.22921896E+02 0.33536555E+03 0.33689552E+03 0.00000000E+00 0.0000E+00 0.9000E+01
       11  1    3    3    0    0 -.21147431E+02 0.23618744E+02 0.42565483E+02 0.53074280E+02 0.00000000E+00 0.0000E+00 0.9000E+01
       -1  1    1    2    0  502 0.36581086E+02 -.68688825E+01 0.83897340E+03 0.83979862E+03 0.00000000E+00 0.0000E+00 0.9000E+01
       21  1    1    2  501  503 0.69969079E+01 0.61720351E+01 0.11837323E+03 0.11874035E+03 0.00000000E+00 0.0000E+00 0.9000E+01
#aMCatNLO 2  0  0  2  1 0.19084824D+02 0.00000000D+00  -5  6  0 0.00000000D+00 0.00000000D+00 0.00000000D+00 0.00000000D+00 0.00000000D+00
  <mgrwgt>
 -.1087924533D+03    2    2    0
 0.885817916625056D+02 0.000000000000000D+00 0.000000000000000D+00 0.885817916625056D+02
 0.885817916625056D+02 0.000000000000000D+00 0.000000000000000D+00 -.885817916625056D+02
 0.332869632297420D+02 -.210845510801766D+02 -.217345679411824D+02 0.138228862114880D+02
 0.760244196773482D+02 -.181488301157946D+02 0.262638367404438D+02 -.689966900102962D+02
 0.678522004179211D+02 0.392333811959712D+02 -.452926879926146D+01 0.551738037988082D+02
 0.000000000000000D+00 0.000000000000000D+00 0.000000000000000D+00 0.000000000000000D+00
 0.973011398207091D+02 0.000000000000000D+00 0.000000000000000D+00 0.973011398207091D+02
 0.912360934508620D+02 0.000000000000000D+00 0.000000000000000D+00 -.912360934508620D+02
 0.349229959616125D+02 -.224305622997619D+02 -.229218964886319D+02 0.138228862114880D+02
 0.759315622195444D+02 -.211474311843354D+02 0.236187438918211D+02 -.689966900102962D+02
 0.665545340124001D+02 0.365810856268812D+02 -.686888246639310D+01 0.551738037988082D+02
 0.111281410780142D+02 0.699690785721610D+01 0.617203506320388D+01 0.606504636984712D+01
-.234114644647D-01 0.000000000000D+00 0.000000000000D+00 0.954075300724D-04 0.000000000000D+00  6 21 -1 -11 11 -1 21 4 0.18794515D+00 0.11179613D-02 0.30428498D+04 0.17194059D+04 0.46698905D+04 0.12976998D+01  1  2 13  2  6  2       -1 -.129895837901D+03
0.452825724321D-02 0.000000000000D+00 0.000000000000D+00 0.962171935215D-04 0.145066915754D-04  6 21 -1 -11 11 -1 21 4 0.20644511D+00 0.10177786D-02 0.30428498D+04 0.17194059D+04 0.46698905D+04 0.12976998D+01  1  2  1  2  6  2       -1 0.211033846051D+02
  </mgrwgt>
  </event>
  <event npLO=' -1 ' npNLO=' 1 '>
  7     66 0.19695947E+02 0.10016280E+02 0.75467711E-02 0.15893204E+00
       21 -1    0    0  503  502 0.00000000E+00 0.00000000E+00 0.25411057E+03 0.25411057E+03 0.00000000E+00 0.0000E+00 0.9000E+01
       -3 -1    0    0    0  501 0.00000000E+00 0.00000000E+00 -.42728456E+02 0.42728456E+02 0.00000000E+00 0.0000E+00 0.9000E+01
       23  2    1    2    0    0 0.65248006E+01 0.42480446E+01 0.22913756E+02 0.92306719E+02 0.89077895E+02 0.0000E+00 0.0000E+00
      -11  1    3    3    0    0 0.11160478E+02 0.11906030E+02 -.32397664E+02 0.36275590E+02 0.00000000E+00 0.0000E+00 0.9000E+01
       11  1    3    3    0    0 -.46356773E+01 -.76579855E+01 0.55311420E+02 0.56031129E+02 0.00000000E+00 0.0000E+00 0.9000E+01
       -3  1    1    2    0  502 -.55769830E+01 0.12657537E+02 -.14073662E+01 0.13903117E+02 0.00000000E+00 0.0000E+00 0.9000E+01
       21  1    1    2  503  501 -.94781763E+00 -.16905582E+02 0.18987573E+03 0.19062919E+03 0.00000000E+00 0.0000E+00 0.9000E+01
#aMCatNLO 2  0  0  1  5 0.57429614D+01 0.00000000D+00  -5  6  0 0.00000000D+00 0.00000000D+00 0.00000000D+00 0.00000000D+00 0.00000000D+00
  <mgrwgt>
 0.1089405228D+04    1    2    0
 0.513110795086463D+02 0.000000000000000D+00 0.000000000000000D+00 0.513110795086463D+02
 0.513110795086463D+02 0.000000000000000D+00 0.000000000000000D+00 -.513110795086463D+02
 0.422688908680433D+02 0.107659473031345D+02 0.486905493312070D+01 -.405838122647310D+02
 0.477028024415675D+02 -.506447948463658D+01 -.153062399286241D+02 0.448957395258872D+02
 0.126504657076817D+02 -.570146781849796D+01 0.104371849955034D+02 -.431192726115615D+01
 0.000000000000000D+00 -.000000000000000D+00 -.000000000000000D+00 0.000000000000000D+00
 0.206942759539135D+03 0.000000000000000D+00 0.000000000000000D+00 0.206942759539135D+03
 0.524674182969590D+02 0.000000000000000D+00 0.000000000000000D+00 -.524674182969590D+02
 0.437419208271330D+02 0.111604778911274D+02 0.119060301087262D+02 -.405838122647310D+02
 0.457794896652187D+02 -.463567730331875D+01 -.765798552956645D+01 0.448957395258872D+02
 0.144882264551495D+02 -.557698295473101D+01 0.126575372894111D+02 -.431192726115615D+01
 0.155400540888593D+03 -.947817633077619D+00 -.169055818685708D+02 0.154475341242176D+03
0.325803524726D-01 0.000000000000D+00 0.000000000000D+00 0.608535578924D-03 0.742153609147D-03  6 21 -3 -11 11 -3 21 4 0.39093934D-01 0.65736086D-02 0.78496933D+03 0.79034029D+02 0.26704156D+04 0.15171334D+01  1  2  1  1  6  1       21 0.108940522756D+04
  </mgrwgt>
  </event>
  <event npLO=' -1 ' npNLO=' 1 '>
  6     66 0.19695947E+02 0.14794544E+02 0.75467711E-02 0.13054266E+00
       21 -1    0    0  501  502 0.00000000E+00 0.00000000E+00 0.36309236E+03 0.36309236E+03 0.00000000E+00 0.0000E+00 0.9000E+01
       -1 -1    0    0    0  501 0.00000000E+00 0.00000000E+00 -.17882290E+02 0.17882290E+02 0.00000000E+00 0.0000E+00 0.9000E+01
       23  2    1    2    0    0 -.11292564E+02 0.95580601E+01 0.99373678E+02 0.13469349E+03 0.89712485E+02 0.0000E+00 0.0000E+00
      -13  1    3    3    0    0 0.27952770E+02 -.53069945E+01 0.18365546E+01 0.28511304E+02 0.00000000E+00 0.0000E+00 0.9000E+01
       13  1    3    3    0    0 -.39245335E+02 0.14865055E+02 0.97537124E+02 0.10618219E+03 0.00000000E+00 0.0000E+00 0.9000E+01
       -1  1    1    2    0  502 0.11292564E+02 -.95580601E+01 0.24583639E+03 0.24628116E+03 0.00000000E+00 0.0000E+00 0.9000E+01
#aMCatNLO 1  0  0  1  1 0.14188472D+03 0.00000000D+00  -5  6  0 0.00000000D+00 0.00000000D+00 0.00000000D+00 0.00000000D+00 0.00000000D+00
  <mgrwgt>
 0.2187973638D+03    3    2    0
 0.805786764762589D+02 0.000000000000000D+00 0.000000000000000D+00 0.805786764762589D+02
 0.805786764762589D+02 0.000000000000000D+00 0.000000000000000D+00 -.805786764762589D+02
 0.634664629527015D+02 0.279527701474435D+02 -.530699447834761D+01 -.567315641456995D+02
 0.420826221267316D+02 -.392453346026637D+02 0.148650545371134D+02 0.312745113389342D+01
 0.556082678730848D+02 0.112925644552203D+02 -.955806005876578D+01 0.536041130118061D+02
 0.000000000000000D+00 0.000000000000000D+00 -.000000000000000D+00 -.000000000000000D+00
 0.908202864286030D+02 0.000000000000000D+00 0.000000000000000D+00 0.908202864286030D+02
 0.177172970549061D+03 0.000000000000000D+00 0.000000000000000D+00 -.177172970549061D+03
 0.598841186954678D+02 0.167375660199471D+02 0.935367228649663D+01 -.567315641456995D+02
 0.549249120584598D+02 -.480653927106601D+02 0.263947539788625D+02 0.312745113389342D+01
 0.537312026088844D+02 0.135126977899983D+01 0.343733501405887D+01 0.536041130118061D+02
 0.994530236148520D+02 0.299765569117131D+02 -.391857612794180D+02 -.863526841204580D+02
0.725843687269D-02 0.000000000000D+00 0.000000000000D+00 0.516577735876D-02 0.000000000000D+00  6 21 -1 -13 13 -1 21 2 0.55860364D-01 0.27511216D-02 0.18153090D+04 0.21887852D+03 0.27941127D+04 0.14321996D+01  1  2  2  1  6  1       21 0.179885048433D+03
0.924811098382D-03 0.352395178181D-03 0.159903661747D-04 0.516577735876D-02 0.000000000000D+00  6 21 -1 -13 13 -1 21 4 0.55860364D-01 0.27511216D-02 0.18153090D+04 0.21887852D+03 0.27941127D+04 0.14321996D+01  1  2  3  1  6  1       21 0.946626766471D+01
0.579252561694D-03 0.000000000000D+00 0.000000000000D+00 0.516577735876D-02 0.000000000000D+00  6 21 -1 -13 13 -1 21 4 0.55860364D-01 0.27511216D-02 0.18153090D+04 0.21887852D+03 0.27941127D+04 0.14321996D+01  1  2 15  1  6  1       21 0.294460477431D+02
  </mgrwgt>
  </event>
  <event npLO=' -1 ' npNLO=' 1 '>
  6     66 -.19695947E+02 0.12175463E+02 0.75467711E-02 0.14767176E+00
       21 -1    0    0  501  502 0.00000000E+00 0.00000000E+00 0.22663426E+03 0.22663426E+03 0.00000000E+00 0.0000E+00 0.9000E+01
       -3 -1    0    0    0  501 0.00000000E+00 0.00000000E+00 -.12191636E+02 0.12191636E+02 0.00000000E+00 0.0000E+00 0.9000E+01
       23  2    1    2    0    0 -.62514080E+01 -.10448053E+02 0.19710229E+03 0.21763795E+03 0.91480717E+02 0.0000E+00 0.0000E+00
      -13  1    3    3    0    0 0.10780382E+01 0.32520915E+02 0.27746956E+02 0.42762900E+02 0.00000000E+00 0.0000E+00 0.9000E+01
       13  1    3    3    0    0 -.73294462E+01 -.42968968E+02 0.16935534E+03 0.17487505E+03 0.00000000E+00 0.0000E+00 0.9000E+01
       -3  1    1    2    0  502 0.62514080E+01 0.10448053E+02 0.17340329E+02 0.21187943E+02 0.00000000E+00 0.0000E+00 0.9000E+01
#aMCatNLO 1  0  0  1  5 0.24440704D+02 0.00000000D+00  -5  6  0 0.00000000D+00 0.00000000D+00 0.00000000D+00 0.00000000D+00 0.00000000D+00
  <mgrwgt>
 -.2156054163D+03   14    4    0
 0.525646483224213D+02 0.000000000000000D+00 0.000000000000000D+00 0.525646483224213D+02
 0.525646483224213D+02 0.000000000000000D+00 0.000000000000000D+00 -.525646483224213D+02
 0.405477633879675D+02 0.107803821142222D+01 0.325209148292206D+02 -.241939878492963D+02
 0.518189280154752D+02 -.732944622692279D+01 -.429689675025633D+02 0.280204987543637D+02
 0.127626052414000D+02 0.625140801550057D+01 0.104480526733427D+02 -.382651090506749D+01
 0.000000000000000D+00 0.000000000000000D+00 0.000000000000000D+00 0.000000000000000D+00
 0.193787547562586D+03 0.000000000000000D+00 0.000000000000000D+00 0.193787547562586D+03
 0.549715908874567D+02 0.000000000000000D+00 0.000000000000000D+00 -.549715908874567D+02
 0.373870318227604D+02 -.637039815175353D+01 0.277823528134739D+02 -.241939878492963D+02
 0.598782670083222D+02 -.180046452420793D+02 -.497603382141188D+02 0.280204987543637D+02
 0.105968856140377D+02 0.401887913488367D+01 0.902775772324423D+01 -.382651090506749D+01
 0.140896954004922D+03 0.203561642589492D+02 0.129502276774007D+02 0.138815956675129D+03
 0.525646483224213D+02 0.000000000000000D+00 0.000000000000000D+00 0.525646483224213D+02
 0.525646483224213D+02 0.000000000000000D+00 0.000000000000000D+00 -.525646483224213D+02
 0.405477633879675D+02 0.107803821142222D+01 0.325209148292206D+02 -.241939878492963D+02
 0.518189280154752D+02 -.732944622692279D+01 -.429689675025633D+02 0.280204987543637D+02
 0.000000000000000D+00 0.000000000000000D+00 0.000000000000000D+00 0.000000000000000D+00
 0.127626052414000D+02 0.625140801550057D+01 0.104480526733427D+02 -.382651090506749D+01
 0.193787547562586D+03 0.000000000000000D+00 0.000000000000000D+00 0.193787547562586D+03
 0.549715908874567D+02 0.000000000000000D+00 0.000000000000000D+00 -.549715908874567D+02
 0.373870318227604D+02 -.637039815175353D+01 0.277823528134739D+02 -.241939878492963D+02
 0.598782670083222D+02 -.180046452420793D+02 -.497603382141188D+02 0.280204987543637D+02
 0.140896954004922D+03 0.203561642589492D+02 0.129502276774007D+02 0.138815956675129D+03
 0.105968856140377D+02 0.401887913488367D+01 0.902775772324423D+01 -.382651090506749D+01
0.216214089491D-03 0.000000000000D+00 0.000000000000D+00 0.195568383619D-02 0.000000000000D+00  6 21 -3 -13 13 -3 21 2 0.34866809D-01 0.18756362D-02 0.19493920D+04 0.14824206D+03 0.27281226D+04 0.14629021D+01  1  2  2  1  6  1       21 0.222372208133D+02
0.789825174243D-05 0.104971364948D-04 0.476320525165D-06 0.195568383619D-02 0.000000000000D+00  6 21 -3 -13 13 -3 21 4 0.34866809D-01 0.18756362D-02 0.19493920D+04 0.14824206D+03 0.27281226D+04 0.14629021D+01  1  2  3  1  6  1       21 -.417905262347D+01
0.156742753924D-04 0.000000000000D+00 0.000000000000D+00 0.195568383619D-02 0.000000000000D+00  6 21 -3 -13 13 -3 21 4 0.34866809D-01 0.18756362D-02 0.19493920D+04 0.14824206D+03 0.27281226D+04 0.14629021D+01  1  2 15  1  6  1       21 0.344996353392D+01
-.112915445856D-01 0.000000000000D+00 -.646651634196D-03 0.195568383619D-02 0.000000000000D+00  6 21 -3 -13 13 -3 21 4 0.13033973D+00 0.18756362D-02 0.19493920D+04 0.14824206D+03 0.27281226D+04 0.14629021D+01  1  2  5  1  6  1       21 -.135187807829D+03
-.434314504134D-02 0.000000000000D+00 -.250171305140D-03 0.195568383619D-02 0.000000000000D+00  6 -3 -3 -13 13 -3 -3 4 0.13033973D+00 0.18756362D-02 0.19493920D+04 0.14824206D+03 0.27281226D+04 0.14629021D+01  1  2  5  4  6  1       21 -.302552735356D+01
-.434314504134D-02 0.000000000000D+00 -.250171305140D-03 0.195568383619D-02 0.000000000000D+00  6 3 -3 -13 13 3 -3 4 0.13033973D+00 0.18756362D-02 0.19493920D+04 0.14824206D+03 0.27281226D+04 0.14629021D+01  3  4  5  5  5  1       21 -.406957591091D+01
-.434314504134D-02 0.000000000000D+00 -.250171305140D-03 0.195568383619D-02 0.000000000000D+00  6 -2 -3 -13 13 -3 -2 4 0.13033973D+00 0.18756362D-02 0.19493920D+04 0.14824206D+03 0.27281226D+04 0.14629021D+01  1  2  5  6  6  1       21 -.527135759814D+01
-.434314504134D-02 0.000000000000D+00 -.250171305140D-03 0.195568383619D-02 0.000000000000D+00  6 -4 -3 -13 13 -3 -4 4 0.13033973D+00 0.18756362D-02 0.19493920D+04 0.14824206D+03 0.27281226D+04 0.14629021D+01  1  2  5  6  6  1       21 -.160154699276D+01
-.434314504134D-02 0.000000000000D+00 -.250171305140D-03 0.195568383619D-02 0.000000000000D+00  6 2 -3 -13 13 2 -3 4 0.13033973D+00 0.18756362D-02 0.19493920D+04 0.14824206D+03 0.27281226D+04 0.14629021D+01  3  4  5  7  5  1       21 -.493596666913D+02
-.434314504134D-02 0.000000000000D+00 -.250171305140D-03 0.195568383619D-02 0.000000000000D+00  6 4 -3 -13 13 4 -3 4 0.13033973D+00 0.18756362D-02 0.19493920D+04 0.14824206D+03 0.27281226D+04 0.14629021D+01  3  4  5  7  5  1       21 -.158321489030D+01
-.434314504134D-02 0.000000000000D+00 -.250171305140D-03 0.195568383619D-02 0.000000000000D+00  6 -1 -3 -13 13 -3 -1 4 0.13033973D+00 0.18756362D-02 0.19493920D+04 0.14824206D+03 0.27281226D+04 0.14629021D+01  1  2  5  8  6  1       21 -.749417980476D+01
-.434314504134D-02 0.000000000000D+00 -.250171305140D-03 0.195568383619D-02 0.000000000000D+00  6 -5 -3 -13 13 -3 -5 4 0.13033973D+00 0.18756362D-02 0.19493920D+04 0.14824206D+03 0.27281226D+04 0.14629021D+01  1  2  5  8  6  1       21 -.869213843871D+00
-.434314504134D-02 0.000000000000D+00 -.250171305140D-03 0.195568383619D-02 0.000000000000D+00  6 1 -3 -13 13 1 -3 4 0.13033973D+00 0.18756362D-02 0.19493920D+04 0.14824206D+03 0.27281226D+04 0.14629021D+01  3  4  5  9  5  1       21 -.277882928235D+02
-.434314504134D-02 0.000000000000D+00 -.250171305140D-03 0.195568383619D-02 0.000000000000D+00  6 5 -3 -13 13 5 -3 4 0.13033973D+00 0.18756362D-02 0.19493920D+04 0.14824206D+03 0.27281226D+04 0.14629021D+01  3  4  5  9  5  1       21 -.863164314245D+00
  </mgrwgt>
  </event>
  <event npLO=' -1 ' npNLO=' 1 '>
  6     66 0.19695947E+02 0.19407885E+02 0.75467711E-02 0.16330318E+00
       21 -1    0    0  501  502 0.00000000E+00 0.00000000E+00 0.34820499E+02 0.34820499E+02 0.00000000E+00 0.0000E+00 0.9000E+01
       -3 -1    0    0    0  501 0.00000000E+00 0.00000000E+00 -.92175128E+02 0.92175128E+02 0.00000000E+00 0.0000E+00 0.9000E+01
       23  2    1    2    0    0 -.19205096E+02 0.27982690E+01 -.49237581E+02 0.10595870E+03 0.91794552E+02 0.0000E+00 0.0000E+00
      -13  1    3    3    0    0 -.29112593E+02 -.35334233E+02 -.48298142E+02 0.66548941E+02 0.00000000E+00 0.0000E+00 0.9000E+01
       13  1    3    3    0    0 0.99074974E+01 0.38132502E+02 -.93943924E+00 0.39409754E+02 0.00000000E+00 0.0000E+00 0.9000E+01
       -3  1    1    2    0  502 0.19205096E+02 -.27982690E+01 -.81170481E+01 0.21036931E+02 0.00000000E+00 0.0000E+00 0.9000E+01
#aMCatNLO 1  0  0  1  5 0.40434152D+01 0.00000000D+00  -5  6  0 0.00000000D+00 0.00000000D+00 0.00000000D+00 0.00000000D+00 0.00000000D+00
  <mgrwgt>
 0.1600844792D+03    3    2    0
 0.566531901282217D+02 0.000000000000000D+00 0.000000000000000D+00 0.566531901282217D+02
 0.566531901282217D+02 0.000000000000000D+00 0.000000000000000D+00 -.566531901282217D+02
 0.501410644549006D+02 -.291125930383031D+02 -.353342327615902D+02 -.204468889175445D+02
 0.436955560826630D+02 0.990749738814727D+01 0.381325018061554D+02 0.188959102157202D+02
 0.194697597188799D+02 0.192050956501558D+02 -.279826904456520D+01 0.155097870182435D+01
 0.000000000000000D+00 -.000000000000000D+00 0.000000000000000D+00 -.000000000000000D+00
 0.619515677189123D+02 0.000000000000000D+00 0.000000000000000D+00 0.619515677189123D+02
 0.114031399028007D+03 0.000000000000000D+00 0.000000000000000D+00 -.114031399028007D+03
 0.449137225716408D+02 -.174812339365284D+02 -.359662851694789D+02 -.204468889175445D+02
 0.469747291108366D+02 0.210023478416173D+02 0.375296034790621D+02 0.188959102157202D+02
 0.248729381336786D+02 0.246310805836720D+02 -.309311909711611D+01 0.155097870182435D+01
 0.592215769307630D+02 -.281521944887609D+02 0.152980078753288D+01 -.520798313090943D+02
0.162157208577D-02 0.000000000000D+00 0.000000000000D+00 0.993474030263D-03 0.000000000000D+00  6 21 -3 -13 13 -3 21 2 0.53569998D-02 0.14180789D-01 0.27347195D+04 0.37666601D+03 0.32053537D+04 0.13926020D+01  1  2  2  1  6  1       21 0.180605226548D+03
-.617157460953D-04 0.787268931482D-04 0.357232994995D-05 0.993474030263D-03 0.000000000000D+00  6 21 -3 -13 13 -3 21 4 0.53569998D-02 0.14180789D-01 0.27347195D+04 0.37666601D+03 0.32053537D+04 0.13926020D+01  1  2  3  1  6  1       21 -.469186194907D+02
0.122213966173D-03 0.000000000000D+00 0.000000000000D+00 0.993474030263D-03 0.000000000000D+00  6 21 -3 -13 13 -3 21 4 0.53569998D-02 0.14180789D-01 0.27347195D+04 0.37666601D+03 0.32053537D+04 0.13926020D+01  1  2 15  1  6  1       21 0.263978721482D+02
  </mgrwgt>
  </event>
  <event npLO=' -1 ' npNLO=' 1 '>
  6     66 0.19695947E+02 0.16018324E+02 0.75467711E-02 0.16595389E+00
       21 -1    0    0  501  502 0.00000000E+00 0.00000000E+00 0.27559934E+02 0.27559934E+02 0.00000000E+00 0.0000E+00 0.9000E+01
       -3 -1    0    0    0  501 -.00000000E+00 -.00000000E+00 -.15775018E+03 0.15775018E+03 0.00000000E+00 0.0000E+00 0.9000E+01
       23  2    1    2    0    0 0.12000923E+02 0.10609644E+02 -.52741415E+02 0.10622214E+03 0.90801426E+02 0.0000E+00 0.0000E+00
      -11  1    3    3    0    0 -.13191381E+01 0.70803592E+01 0.25643260E+02 0.26635473E+02 0.00000000E+00 0.0000E+00 0.9000E+01
       11  1    3    3    0    0 0.13320061E+02 0.35292852E+01 -.78384675E+02 0.79586665E+02 0.00000000E+00 0.0000E+00 0.9000E+01
       -3  1    1    2    0  502 -.12000923E+02 -.10609644E+02 -.77448829E+02 0.79087975E+02 0.00000000E+00 0.0000E+00 0.9000E+01
#aMCatNLO 1  0  0  5  1 0.17971172D+01 0.00000000D+00  -5  6  0 0.00000000D+00 0.00000000D+00 0.00000000D+00 0.00000000D+00 0.00000000D+00
  <mgrwgt>
 0.6396761532D+02    8    2    0
 0.659362159474685D+02 0.000000000000000D+00 0.000000000000000D+00 0.659362159474685D+02
 0.659362159474685D+02 -.000000000000000D+00 -.000000000000000D+00 -.659362159474685D+02
 0.627449170498770D+02 -.131913810411830D+01 0.708035917238888D+01 0.623301933596245D+02
 0.344521880366195D+02 0.133200611961389D+02 0.352928522500783D+01 -.315764687076032D+02
 0.346753268084405D+02 -.120009230920206D+02 -.106096443973967D+02 -.307537246520214D+02
 0.000000000000000D+00 0.000000000000000D+00 0.000000000000000D+00 -.000000000000000D+00
 0.659362159474685D+02 0.000000000000000D+00 0.000000000000000D+00 0.659362159474685D+02
 0.659362159474685D+02 -.000000000000000D+00 -.000000000000000D+00 -.659362159474685D+02
 0.624995137496669D+02 -.141268496436960D+01 0.699765729069620D+01 0.620904689350807D+02
 0.345488286199247D+02 0.132685233479395D+02 0.348372220971226D+01 -.317085402808087D+02
 0.315176872085757D+01 -.820030917859461D+00 -.245346288621223D+01 -.180047638960086D+01
 0.316723208044878D+02 -.110358074657104D+02 -.802791661419623D+01 -.285814522646711D+02
0.320432499422D-03 0.000000000000D+00 0.000000000000D+00 0.728064737236D-03 0.000000000000D+00  6 21 -3 -11 11 -3 21 2 0.42399899D-02 0.24269258D-01 0.34225389D+03 0.25658697D+03 0.29279913D+04 0.14202406D+01  1  2  2  3  6  5       -3 0.212965429123D+02
0.320167089338D-04 0.155569125570D-04 0.705914109317D-06 0.728064737236D-03 0.000000000000D+00  6 21 -3 -11 11 -3 21 4 0.42399899D-02 0.24269258D-01 0.34225389D+03 0.25658697D+03 0.29279913D+04 0.14202406D+01  1  2  3  3  6  5       -3 0.389445142564D+01
0.159951083281D-04 0.000000000000D+00 0.000000000000D+00 0.728064737236D-03 0.000000000000D+00  6 21 -3 -11 11 -3 21 4 0.42399899D-02 0.24269258D-01 0.34225389D+03 0.25658697D+03 0.29279913D+04 0.14202406D+01  1  2 15  3  6  5       -3 0.214429031021D+01
0.171122445866D-06 0.000000000000D+00 0.000000000000D+00 0.752737341309D-03 0.000000000000D+00  6 21 -3 -11 11 -3 21 4 0.42399899D-02 0.24269258D-01 0.34393172D+03 0.18760171D+03 0.27839039D+04 0.14441046D+01  1  2 12  3  6  5       -3 0.244178820883D-01
-.834014055487D-03 0.000000000000D+00 0.000000000000D+00 0.728064737236D-03 0.000000000000D+00  6 21 -3 -11 11 -3 21 4 0.42399899D-02 0.24269258D-01 0.34225389D+03 0.25658697D+03 0.29279913D+04 0.14202406D+01  1  2  4  3  6  5       -3 -.111807198868D+03
-.260754413030D-03 0.000000000000D+00 0.000000000000D+00 0.728064737236D-03 0.000000000000D+00  6 21 -3 -11 11 -3 21 4 0.42399899D-02 0.24269258D-01 0.34225389D+03 0.25658697D+03 0.29279913D+04 0.14202406D+01  1  2  5  3  6  5       -3 -.349565098113D+02
0.517626537531D-03 0.000000000000D+00 -.000000000000D+00 0.728064737236D-03 0.000000000000D+00  6 21 -3 -11 11 -3 21 4 0.42399899D-02 0.24269258D-01 0.34225389D+03 0.25658697D+03 0.29279913D+04 0.14202406D+01  1  2  6  3  6  5       -3 0.693925633992D+02
0.798774239432D-03 0.000000000000D+00 0.000000000000D+00 0.728064737236D-03 0.378531804375D-03  6 21 -3 -11 11 -3 21 4 0.42399899D-02 0.24269258D-01 0.34393172D+03 0.18760171D+03 0.27839039D+04 0.14441046D+01  1  2 11  3  6  5       -3 0.113979058065D+03
  </mgrwgt>
  </event>
  <event npLO=' -1 ' npNLO=' 1 '>
  6     66 0.19695947E+02 0.37760963E+02 0.75467711E-02 0.13722778E+00
       21 -1    0    0  501  502 0.00000000E+00 0.00000000E+00 0.29943782E+03 0.29943782E+03 0.00000000E+00 0.0000E+00 0.9000E+01
       -3 -1    0    0    0  501 0.00000000E+00 0.00000000E+00 -.16849860E+02 0.16849860E+02 0.00000000E+00 0.0000E+00 0.9000E+01
       23  2    1    2    0    0 -.36819967E+02 0.83773680E+01 0.15392227E+03 0.18219537E+03 0.89873213E+02 0.0000E+00 0.0000E+00
      -13  1    3    3    0    0 -.35740556E+02 0.28954839E+02 0.15488131E+03 0.16156730E+03 0.00000000E+00 0.0000E+00 0.9000E+01
       13  1    3    3    0    0 -.10794114E+01 -.20577472E+02 -.95903921E+00 0.20628069E+02 0.00000000E+00 0.0000E+00 0.9000E+01
       -3  1    1    2    0  502 0.36819967E+02 -.83773680E+01 0.12866569E+03 0.13409232E+03 0.00000000E+00 0.0000E+00 0.9000E+01
#aMCatNLO 1  0  0  1  2 0.15106902D+02 0.00000000D+00  -5  6  0 0.00000000D+00 0.00000000D+00 0.00000000D+00 0.00000000D+00 0.00000000D+00
  <mgrwgt>
 0.5700798922D+02   38    4    0
 0.710315807876777D+02 0.000000000000000D+00 0.000000000000000D+00 0.710315807876777D+02
 0.710315807876777D+02 0.000000000000000D+00 0.000000000000000D+00 -.710315807876777D+02
 0.516259879718878D+02 -.357405559768384D+02 0.289548394859909D+02 0.234408311047303D+02
 0.478337731245570D+02 -.107941141362123D+01 -.205774715203183D+02 -.431679555707961D+02
 0.426034004789106D+02 0.368199673904596D+02 -.837736796567257D+01 0.197271244660658D+02
 0.000000000000000D+00 -.000000000000000D+00 -.000000000000000D+00 0.000000000000000D+00
 0.924947043316900D+02 0.000000000000000D+00 0.000000000000000D+00 0.924947043316900D+02
 0.737518562323244D+02 0.000000000000000D+00 0.000000000000000D+00 -.737518562323244D+02
 0.501053521534700D+02 -.312871191854417D+02 0.313399094545392D+02 0.234408311047303D+02
 0.470082823970033D+02 0.307243696379071D+01 -.183539193868152D+02 -.431679555707961D+02
 0.456519248097641D+02 0.406834721097816D+02 -.630824034333810D+01 0.197271244660658D+02
 0.234810012037771D+02 -.124687898881307D+02 -.667774972438583D+01 0.187428480993657D+02
 0.710315807876777D+02 0.000000000000000D+00 0.000000000000000D+00 0.710315807876777D+02
 0.710315807876777D+02 0.000000000000000D+00 0.000000000000000D+00 -.710315807876777D+02
 0.516259879718878D+02 -.357405559768384D+02 0.289548394859909D+02 0.234408311047303D+02
 0.478337731245570D+02 -.107941141362123D+01 -.205774715203183D+02 -.431679555707961D+02
 0.000000000000000D+00 -.000000000000000D+00 -.000000000000000D+00 0.000000000000000D+00
 0.426034004789106D+02 0.368199673904596D+02 -.837736796567257D+01 0.197271244660658D+02
 0.924947043316900D+02 0.000000000000000D+00 0.000000000000000D+00 0.924947043316900D+02
 0.737518562323244D+02 0.000000000000000D+00 0.000000000000000D+00 -.737518562323244D+02
 0.501053521534700D+02 -.312871191854417D+02 0.313399094545392D+02 0.234408311047303D+02
 0.470082823970033D+02 0.307243696379071D+01 -.183539193868152D+02 -.431679555707961D+02
 0.234810012037771D+02 -.124687898881307D+02 -.667774972438583D+01 0.187428480993657D+02
 0.456519248097641D+02 0.406834721097816D+02 -.630824034333810D+01 0.197271244660658D+02
0.370602094891D-03 0.000000000000D+00 0.000000000000D+00 0.401539576250D-03 0.000000000000D+00  6 21 -3 -13 13 -3 21 2 0.46067358D-01 0.25922862D-02 0.27229729D+04 0.14258903D+04 0.45727842D+04 0.13083210D+01  1  2  2  1  6  1       21 0.115401212656D+02
-.278197193965D-04 0.179926330633D-04 0.816437933722D-06 0.401539576250D-03 0.000000000000D+00  6 21 -3 -13 13 -3 21 4 0.46067358D-01 0.25922862D-02 0.27229729D+04 0.14258903D+04 0.45727842D+04 0.13083210D+01  1  2  3  1  6  1       21 -.208065972668D+01
0.285574586636D-04 0.000000000000D+00 0.000000000000D+00 0.401539576250D-03 0.000000000000D+00  6 21 -3 -13 13 -3 21 4 0.46067358D-01 0.25922862D-02 0.27229729D+04 0.14258903D+04 0.45727842D+04 0.13083210D+01  1  2 15  1  6  1       21 0.152212627917D+01
0.851685887289D-03 0.000000000000D+00 0.000000000000D+00 0.404530847844D-03 0.000000000000D+00  6 21 -3 -13 13 -3 21 4 0.62284526D-01 0.25922862D-02 0.34932424D+04 0.13108682D+04 0.44287646D+04 0.13131851D+01  1  2 12  1  6  1       21 0.245342607452D+02
0.851685887289D-03 0.000000000000D+00 0.000000000000D+00 0.404530847844D-03 0.000000000000D+00  6 21 -3 -13 13 -3 21 4 0.62284526D-01 0.25922862D-02 0.34932424D+04 0.13108682D+04 0.44287646D+04 0.13131851D+01  1  2 12  1  6  1       21 0.245342607452D+02
-.896999696672D-03 0.000000000000D+00 0.000000000000D+00 0.401539576250D-03 0.000000000000D+00  6 21 -3 -13 13 -3 21 4 0.46067358D-01 0.25922862D-02 0.27229729D+04 0.14258903D+04 0.45727842D+04 0.13083210D+01  1  2  4  1  6  1       21 -.478105151719D+02
-.211758430839D-02 0.000000000000D+00 -.415028604802D-03 0.401539576250D-03 0.000000000000D+00  6 21 -3 -13 13 -3 21 4 0.61574518D-01 0.25922862D-02 0.27229729D+04 0.14258903D+04 0.45727842D+04 0.13083210D+01  1  2  5  1  6  1       21 -.679391864422D+02
0.194010340340D-02 0.000000000000D+00 0.352694198195D-03 0.401539576250D-03 0.000000000000D+00  6 21 -3 -13 13 -3 21 4 0.46067358D-01 0.25922862D-02 0.27229729D+04 0.14258903D+04 0.45727842D+04 0.13083210D+01  1  2  6  1  6  1       21 0.113153688788D+03
0.807139619076D-04 0.000000000000D+00 0.000000000000D+00 0.404530847844D-03 0.000000000000D+00  6 -3 -3 -13 13 -3 -3 4 0.62284526D-01 0.25922862D-02 0.34932424D+04 0.13108682D+04 0.44287646D+04 0.13131851D+01  1  2 12  4  6  1       21 0.139562027784D+00
0.807139619076D-04 0.000000000000D+00 0.000000000000D+00 0.404530847844D-03 0.000000000000D+00  6 -3 -3 -13 13 -3 -3 4 0.62284526D-01 0.25922862D-02 0.34932424D+04 0.13108682D+04 0.44287646D+04 0.13131851D+01  1  2 12  4  6  1       21 0.139562027784D+00
-.155669057002D-03 0.000000000000D+00 -.375007088817D-04 0.401539576250D-03 0.000000000000D+00  6 -3 -3 -13 13 -3 -3 4 0.61574518D-01 0.25922862D-02 0.27229729D+04 0.14258903D+04 0.45727842D+04 0.13083210D+01  1  2  5  4  6  1       21 -.306713853964D+00
0.807139619076D-04 0.000000000000D+00 0.000000000000D+00 0.404530847844D-03 0.000000000000D+00  6 3 -3 -13 13 3 -3 4 0.62284526D-01 0.25922862D-02 0.34932424D+04 0.13108682D+04 0.44287646D+04 0.13131851D+01  3  4 12  5  5  1       21 0.150272551573D+00
0.807139619076D-04 0.000000000000D+00 0.000000000000D+00 0.404530847844D-03 0.000000000000D+00  6 3 -3 -13 13 3 -3 4 0.62284526D-01 0.25922862D-02 0.34932424D+04 0.13108682D+04 0.44287646D+04 0.13131851D+01  3  4 12  5  5  1       21 0.150272551573D+00
-.155669057002D-03 0.000000000000D+00 -.375007088817D-04 0.401539576250D-03 0.000000000000D+00  6 3 -3 -13 13 3 -3 4 0.61574518D-01 0.25922862D-02 0.27229729D+04 0.14258903D+04 0.45727842D+04 0.13083210D+01  3  4  5  5  5  1       21 -.329482735673D+00
0.807139619076D-04 0.000000000000D+00 0.000000000000D+00 0.404530847844D-03 0.000000000000D+00  6 -2 -3 -13 13 -3 -2 4 0.62284526D-01 0.25922862D-02 0.34932424D+04 0.13108682D+04 0.44287646D+04 0.13131851D+01  1  2 12  6  6  1       21 0.216788236583D+00
0.807139619076D-04 0.000000000000D+00 0.000000000000D+00 0.404530847844D-03 0.000000000000D+00  6 -4 -3 -13 13 -3 -4 4 0.62284526D-01 0.25922862D-02 0.34932424D+04 0.13108682D+04 0.44287646D+04 0.13131851D+01  1  2 12  6  6  1       21 0.805080214191D-01
0.807139619076D-04 0.000000000000D+00 0.000000000000D+00 0.404530847844D-03 0.000000000000D+00  6 -2 -3 -13 13 -3 -2 4 0.62284526D-01 0.25922862D-02 0.34932424D+04 0.13108682D+04 0.44287646D+04 0.13131851D+01  1  2 12  6  6  1       21 0.216788236583D+00
0.807139619076D-04 0.000000000000D+00 0.000000000000D+00 0.404530847844D-03 0.000000000000D+00  6 -4 -3 -13 13 -3 -4 4 0.62284526D-01 0.25922862D-02 0.34932424D+04 0.13108682D+04 0.44287646D+04 0.13131851D+01  1  2 12  6  6  1       21 0.805080214191D-01
-.155669057002D-03 0.000000000000D+00 -.375007088817D-04 0.401539576250D-03 0.000000000000D+00  6 -2 -3 -13 13 -3 -2 4 0.61574518D-01 0.25922862D-02 0.27229729D+04 0.14258903D+04 0.45727842D+04 0.13083210D+01  1  2  5  6  6  1       21 -.474932914766D+00
-.155669057002D-03 0.000000000000D+00 -.375007088817D-04 0.401539576250D-03 0.000000000000D+00  6 -4 -3 -13 13 -3 -4 4 0.61574518D-01 0.25922862D-02 0.27229729D+04 0.14258903D+04 0.45727842D+04 0.13083210D+01  1  2  5  6  6  1       21 -.177408493907D+00
0.807139619076D-04 0.000000000000D+00 0.000000000000D+00 0.404530847844D-03 0.000000000000D+00  6 2 -3 -13 13 2 -3 4 0.62284526D-01 0.25922862D-02 0.34932424D+04 0.13108682D+04 0.44287646D+04 0.13131851D+01  3  4 12  7  5  1       21 0.854048618527D+00
0.807139619076D-04 0.000000000000D+00 0.000000000000D+00 0.404530847844D-03 0.000000000000D+00  6 4 -3 -13 13 4 -3 4 0.62284526D-01 0.25922862D-02 0.34932424D+04 0.13108682D+04 0.44287646D+04 0.13131851D+01  3  4 12  7  5  1       21 0.798755334503D-01
0.807139619076D-04 0.000000000000D+00 0.000000000000D+00 0.404530847844D-03 0.000000000000D+00  6 2 -3 -13 13 2 -3 4 0.62284526D-01 0.25922862D-02 0.34932424D+04 0.13108682D+04 0.44287646D+04 0.13131851D+01  3  4 12  7  5  1       21 0.854048618527D+00
0.807139619076D-04 0.000000000000D+00 0.000000000000D+00 0.404530847844D-03 0.000000000000D+00  6 4 -3 -13 13 4 -3 4 0.62284526D-01 0.25922862D-02 0.34932424D+04 0.13108682D+04 0.44287646D+04 0.13131851D+01  3  4 12  7  5  1       21 0.798755334503D-01
-.155669057002D-03 0.000000000000D+00 -.375007088817D-04 0.401539576250D-03 0.000000000000D+00  6 2 -3 -13 13 2 -3 4 0.61574518D-01 0.25922862D-02 0.27229729D+04 0.14258903D+04 0.45727842D+04 0.13083210D+01  3  4  5  7  5  1       21 -.185186841902D+01
-.155669057002D-03 0.000000000000D+00 -.375007088817D-04 0.401539576250D-03 0.000000000000D+00  6 4 -3 -13 13 4 -3 4 0.61574518D-01 0.25922862D-02 0.27229729D+04 0.14258903D+04 0.45727842D+04 0.13083210D+01  3  4  5  7  5  1       21 -.176027813076D+00
0.807139619076D-04 0.000000000000D+00 0.000000000000D+00 0.404530847844D-03 0.000000000000D+00  6 -1 -3 -13 13 -3 -1 4 0.62284526D-01 0.25922862D-02 0.34932424D+04 0.13108682D+04 0.44287646D+04 0.13131851D+01  1  2 12  8  6  1       21 0.265509420508D+00
0.807139619076D-04 0.000000000000D+00 0.000000000000D+00 0.404530847844D-03 0.000000000000D+00  6 -5 -3 -13 13 -3 -5 4 0.62284526D-01 0.25922862D-02 0.34932424D+04 0.13108682D+04 0.44287646D+04 0.13131851D+01  1  2 12  8  6  1       21 0.500656181998D-01
0.807139619076D-04 0.000000000000D+00 0.000000000000D+00 0.404530847844D-03 0.000000000000D+00  6 -1 -3 -13 13 -3 -1 4 0.62284526D-01 0.25922862D-02 0.34932424D+04 0.13108682D+04 0.44287646D+04 0.13131851D+01  1  2 12  8  6  1       21 0.265509420508D+00
0.807139619076D-04 0.000000000000D+00 0.000000000000D+00 0.404530847844D-03 0.000000000000D+00  6 -5 -3 -13 13 -3 -5 4 0.62284526D-01 0.25922862D-02 0.34932424D+04 0.13108682D+04 0.44287646D+04 0.13131851D+01  1  2 12  8  6  1       21 0.500656181998D-01
-.155669057002D-03 0.000000000000D+00 -.375007088817D-04 0.401539576250D-03 0.000000000000D+00  6 -1 -3 -13 13 -3 -1 4 0.61574518D-01 0.25922862D-02 0.27229729D+04 0.14258903D+04 0.45727842D+04 0.13083210D+01  1  2  5  8  6  1       21 -.580559645482D+00
-.155669057002D-03 0.000000000000D+00 -.375007088817D-04 0.401539576250D-03 0.000000000000D+00  6 -5 -3 -13 13 -3 -5 4 0.61574518D-01 0.25922862D-02 0.27229729D+04 0.14258903D+04 0.45727842D+04 0.13083210D+01  1  2  5  8  6  1       21 -.110512165366D+00
0.807139619076D-04 0.000000000000D+00 0.000000000000D+00 0.404530847844D-03 0.000000000000D+00  6 1 -3 -13 13 1 -3 4 0.62284526D-01 0.25922862D-02 0.34932424D+04 0.13108682D+04 0.44287646D+04 0.13131851D+01  3  4 12  9  5  1       21 0.585352915195D+00
0.807139619076D-04 0.000000000000D+00 0.000000000000D+00 0.404530847844D-03 0.000000000000D+00  6 5 -3 -13 13 5 -3 4 0.62284526D-01 0.25922862D-02 0.34932424D+04 0.13108682D+04 0.44287646D+04 0.13131851D+01  3  4 12  9  5  1       21 0.498503593762D-01
0.807139619076D-04 0.000000000000D+00 0.000000000000D+00 0.404530847844D-03 0.000000000000D+00  6 1 -3 -13 13 1 -3 4 0.62284526D-01 0.25922862D-02 0.34932424D+04 0.13108682D+04 0.44287646D+04 0.13131851D+01  3  4 12  9  5  1       21 0.585352915195D+00
0.807139619076D-04 0.000000000000D+00 0.000000000000D+00 0.404530847844D-03 0.000000000000D+00  6 5 -3 -13 13 5 -3 4 0.62284526D-01 0.25922862D-02 0.34932424D+04 0.13108682D+04 0.44287646D+04 0.13131851D+01  3  4 12  9  5  1       21 0.498503593762D-01
-.155669057002D-03 0.000000000000D+00 -.375007088817D-04 0.401539576250D-03 0.000000000000D+00  6 1 -3 -13 13 1 -3 4 0.61574518D-01 0.25922862D-02 0.27229729D+04 0.14258903D+04 0.45727842D+04 0.13083210D+01  3  4  5  9  5  1       21 -.127222643165D+01
-.155669057002D-03 0.000000000000D+00 -.375007088817D-04 0.401539576250D-03 0.000000000000D+00  6 5 -3 -13 13 5 -3 4 0.61574518D-01 0.25922862D-02 0.27229729D+04 0.14258903D+04 0.45727842D+04 0.13083210D+01  3  4  5  9  5  1       21 -.110041392114D+00
  </mgrwgt>
  </event>
  <event npLO=' -1 ' npNLO=' 1 '>
  7     66 0.19695947E+02 0.18471322E+02 0.75467711E-02 0.13460610E+00
       21 -1    0    0  501  502 0.00000000E+00 0.00000000E+00 0.10710569E+04 0.10710569E+04 0.00000000E+00 0.0000E+00 0.9000E+01
       21 -1    0    0  503  501 0.00000000E+00 0.00000000E+00 -.76493711E+01 0.76493711E+01 0.00000000E+00 0.0000E+00 0.9000E+01
       23  2    1    2    0    0 0.34339184E+02 -.32406352E+02 0.84786222E+03 0.85290973E+03 0.79720139E+02 0.0000E+00 0.0000E+00
      -11  1    3    3    0    0 0.54089407E+02 -.42329872E+02 0.55914733E+03 0.56335000E+03 0.00000000E+00 0.0000E+00 0.9000E+01
       11  1    3    3    0    0 -.19750223E+02 0.99235200E+01 0.28871489E+03 0.28955973E+03 0.00000000E+00 0.0000E+00 0.9000E+01
        3  1    1    2  503    0 -.17675758E+02 0.22070045E+02 0.39033520E+02 0.48198911E+02 0.00000000E+00 0.0000E+00 0.9000E+01
       -3  1    1    2    0  502 -.16663426E+02 0.10336307E+02 0.17651175E+03 0.17759760E+03 0.00000000E+00 0.0000E+00 0.9000E+01
#aMCatNLO 2  0  0  2  2 0.29220977D+02 0.00000000D+00  -5  6  0 0.00000000D+00 0.00000000D+00 0.00000000D+00 0.00000000D+00 0.00000000D+00
  <mgrwgt>
 0.3511435641D+03    1    2    0
 0.543226236619840D+02 0.000000000000000D+00 0.000000000000000D+00 0.543226236619840D+02
 0.543226236619840D+02 0.000000000000000D+00 0.000000000000000D+00 -.543226236619840D+02
 0.540293519257671D+02 0.442353646701505D+02 -.300260626502401D+02 -.779993229079895D+01
 0.295412172281093D+02 -.239965062383651D+02 0.152254519498286D+02 0.806454069330104D+01
 0.000000000000000D+00 -.000000000000000D+00 0.000000000000000D+00 -.000000000000000D+00
 0.250746781700915D+02 -.202388584317854D+02 0.148006107004115D+02 -.264608402502091D+00
 0.585151176804375D+02 0.000000000000000D+00 0.000000000000000D+00 0.585151176804375D+02
 0.140013584732962D+03 0.000000000000000D+00 0.000000000000000D+00 -.140013584732962D+03
 0.691254002578007D+02 0.540894071462414D+02 -.423298718593410D+02 -.779993229079895D+01
 0.235283735177681D+02 -.197502226632161D+02 0.992351996778795D+01 0.806454069330104D+01
 0.862642419745691D+02 -.176757583859268D+02 0.220700447896673D+02 -.814984670525246D+02
 0.196106866632618D+02 -.166634260970985D+02 0.103363071018858D+02 -.264608402502091D+00
0.237680099118D-02 0.000000000000D+00 0.000000000000D+00 0.761425004082D-05 0.220471668401D-07  6 21 21 -11 11 3 -3 4 0.16477798D+00 0.11768263D-02 0.48074611D+04 0.16335107D+04 0.42118059D+04 0.13005807D+01  1  2  1 10  5  2       -3 0.351143564077D+03
  </mgrwgt>
  </event>
  <event npLO=' -1 ' npNLO=' 1 '>
  6     66 0.19695947E+02 0.13371997E+02 0.75467711E-02 0.16701558E+00
       21 -1    0    0  501  502 0.00000000E+00 0.00000000E+00 0.16561968E+02 0.16561968E+02 0.00000000E+00 0.0000E+00 0.9000E+01
       -3 -1    0    0    0  501 0.00000000E+00 0.00000000E+00 -.32958993E+03 0.32958993E+03 0.00000000E+00 0.0000E+00 0.9000E+01
       23  2    1    2    0    0 -.41112813E+00 -.13365675E+02 -.31858225E+03 0.33167225E+03 0.91285378E+02 0.0000E+00 0.0000E+00
      -13  1    3    3    0    0 0.99474034E+01 -.32507387E+02 -.30300833E+03 0.30490937E+03 0.00000000E+00 0.0000E+00 0.9000E+01
       13  1    3    3    0    0 -.10358532E+02 0.19141712E+02 -.15573923E+02 0.26762873E+02 0.00000000E+00 0.0000E+00 0.9000E+01
       -3  1    1    2    0  502 0.41112813E+00 0.13365675E+02 0.55542843E+01 0.14479654E+02 0.00000000E+00 0.0000E+00 0.9000E+01
#aMCatNLO 1  0  0  2  1 0.35852294D+01 0.00000000D+00  -5  6  0 0.00000000D+00 0.00000000D+00 0.00000000D+00 0.00000000D+00 0.00000000D+00
  <mgrwgt>
 0.4281869417D+02    8    4    0
 0.738827317131782D+02 0.000000000000000D+00 0.000000000000000D+00 0.738827317131782D+02
 0.738827317131782D+02 0.000000000000000D+00 0.000000000000000D+00 -.738827317131782D+02
 0.723774007992032D+02 0.994740337564308D+01 -.325073869515694D+02 -.638968473878929D+02
 0.297021096248993D+02 -.103585315079543D+02 0.191417117392509D+02 0.202116553715838D+02
 0.456859530022540D+02 0.411128132311261D+00 0.133656752123185D+02 0.436851920163091D+02
 0.000000000000000D+00 -.000000000000000D+00 -.000000000000000D+00 0.000000000000000D+00
 0.755115625390805D+02 0.000000000000000D+00 0.000000000000000D+00 0.755115625390805D+02
 0.742669775440205D+02 0.000000000000000D+00 0.000000000000000D+00 -.742669775440205D+02
 0.724378936183733D+02 0.107099199895474D+02 -.323996749917738D+02 -.638968473878929D+02
 0.296231774990246D+02 -.100461576165186D+02 0.191858372093351D+02 0.202116553715838D+02
 0.457127496003790D+02 0.892382750506826D+00 0.134336565220255D+02 0.436851920163091D+02
 0.200471936532416D+01 -.155614512353568D+01 -.219818739586738D+00 0.124458499505993D+01
 0.738827317131782D+02 0.000000000000000D+00 0.000000000000000D+00 0.738827317131782D+02
 0.738827317131782D+02 0.000000000000000D+00 0.000000000000000D+00 -.738827317131782D+02
 0.723774007992032D+02 0.994740337564308D+01 -.325073869515694D+02 -.638968473878929D+02
 0.297021096248993D+02 -.103585315079543D+02 0.191417117392509D+02 0.202116553715838D+02
 0.000000000000000D+00 -.000000000000000D+00 -.000000000000000D+00 0.000000000000000D+00
 0.456859530022540D+02 0.411128132311261D+00 0.133656752123185D+02 0.436851920163091D+02
 0.755115625390805D+02 0.000000000000000D+00 0.000000000000000D+00 0.755115625390805D+02
 0.742669775440205D+02 0.000000000000000D+00 0.000000000000000D+00 -.742669775440205D+02
 0.724378936183733D+02 0.107099199895474D+02 -.323996749917738D+02 -.638968473878929D+02
 0.296231774990246D+02 -.100461576165186D+02 0.191858372093351D+02 0.202116553715838D+02
 0.200471936532416D+01 -.155614512353568D+01 -.219818739586738D+00 0.124458499505993D+01
 0.457127496003790D+02 0.892382750506826D+00 0.134336565220255D+02 0.436851920163091D+02
0.131560762457D-02 0.000000000000D+00 0.000000000000D+00 0.176007964341D-01 0.000000000000D+00  6 21 -3 -13 13 -3 21 2 0.25479951D-02 0.50706143D-01 0.11948103D+04 0.17881030D+03 0.27895076D+04 0.14478735D+01  1  2  2  2  6  2       -3 0.470581172400D+02
0.145784734610D-03 0.638723999959D-04 0.289828898812D-05 0.176007964341D-01 0.000000000000D+00  6 21 -3 -13 13 -3 21 4 0.25479951D-02 0.50706143D-01 0.11948103D+04 0.17881030D+03 0.27895076D+04 0.14478735D+01  1  2  3  2  6  2       -3 0.201870751266D+01
0.998557029899D-04 0.000000000000D+00 0.000000000000D+00 0.176007964341D-01 0.000000000000D+00  6 21 -3 -13 13 -3 21 4 0.25479951D-02 0.50706143D-01 0.11948103D+04 0.17881030D+03 0.27895076D+04 0.14478735D+01  1  2 15  2  6  2       -3 0.748759385791D+01
0.753004472002D-04 0.000000000000D+00 0.000000000000D+00 0.176213013333D-01 0.000000000000D+00  6 21 -3 -13 13 -3 21 4 0.25479951D-02 0.52093543D-01 0.12537150D+04 0.17691033D+03 0.27852032D+04 0.14487166D+01  1  2 12  2  6  2       -3 0.534189096400D+01
-.297491882026D-02 0.000000000000D+00 0.000000000000D+00 0.176007964341D-01 0.000000000000D+00  6 21 -3 -13 13 -3 21 4 0.25479951D-02 0.50706143D-01 0.11948103D+04 0.17881030D+03 0.27895076D+04 0.14478735D+01  1  2  4  2  6  2       -3 -.223071724693D+03
0.268524723031D-02 0.000000000000D+00 0.000000000000D+00 0.176007964341D-01 0.873612398852D-01  6 21 -3 -13 13 -3 21 4 0.26041687D-02 0.50969854D-01 0.12537150D+04 0.17691033D+03 0.27852032D+04 0.14487166D+01  1  2 11  2  6  2       -3 0.193131761922D+03
0.314476265909D-05 0.000000000000D+00 0.000000000000D+00 0.176212994115D-01 0.000000000000D+00  6 21 21 -13 13 3 -3 4 0.25479951D-02 0.52093543D-01 0.12537150D+04 0.17691051D+03 0.27852035D+04 0.14487166D+01  3  4 12 10  5  2       -3 0.374390311675D+01
0.590106489239D-05 0.000000000000D+00 0.000000000000D+00 0.176212994115D-01 0.871606568088D-04  6 21 21 -13 13 3 -3 4 0.26041687D-02 0.50969854D-01 0.12537150D+04 0.17691051D+03 0.27852035D+04 0.14487166D+01  3  4 11 10  5  2       -3 0.710844425084D+01
  </mgrwgt>
  </event>
  <event npLO=' -1 ' npNLO=' 1 '>
  6     66 0.19695947E+02 0.17574829E+02 0.75467711E-02 0.15625092E+00
       21 -1    0    0  501  502 0.00000000E+00 0.00000000E+00 0.10970439E+03 0.10970439E+03 0.00000000E+00 0.0000E+00 0.9000E+01
       -1 -1    0    0    0  501 0.00000000E+00 0.00000000E+00 -.10621399E+03 0.10621399E+03 0.00000000E+00 0.0000E+00 0.9000E+01
       23  2    1    2    0    0 -.17034827E+02 0.43231084E+01 -.84457946E+02 0.12623122E+03 0.92153684E+02 0.0000E+00 0.0000E+00
      -11  1    3    3    0    0 -.49942070E+02 -.12676569E+02 -.27817113E+02 0.58555081E+02 0.00000000E+00 0.0000E+00 0.9000E+01
       11  1    3    3    0    0 0.32907243E+02 0.16999677E+02 -.56640833E+02 0.67676138E+02 0.00000000E+00 0.0000E+00 0.9000E+01
       -1  1    1    2    0  502 0.17034827E+02 -.43231084E+01 0.87948348E+02 0.89687159E+02 0.00000000E+00 0.0000E+00 0.9000E+01
#aMCatNLO 1  0  0  1  2 0.36574310D+01 0.00000000D+00  -5  6  0 0.00000000D+00 0.00000000D+00 0.00000000D+00 0.00000000D+00 0.00000000D+00
  <mgrwgt>
 0.1241334216D+03   49    4    0
 0.107945082104600D+03 0.000000000000000D+00 0.000000000000000D+00 0.107945082104600D+03
 0.107945082104600D+03 0.000000000000000D+00 0.000000000000000D+00 -.107945082104600D+03
 0.590124664061026D+02 -.499420702296538D+02 -.126765689443347D+02 -.287674366655641D+02
 0.686007222277097D+02 0.329072431487359D+02 0.169996773896574D+02 -.577423883049613D+02
 0.882769755753885D+02 0.170348270809179D+02 -.432310844532276D+01 0.865098249705254D+02
 0.000000000000000D+00 0.000000000000000D+00 0.000000000000000D+00 0.000000000000000D+00
 0.116941718857856D+03 0.000000000000000D+00 0.000000000000000D+00 0.116941718857856D+03
 0.108316944854067D+03 0.000000000000000D+00 0.000000000000000D+00 -.108316944854067D+03
 0.597178798159253D+02 -.505805876794872D+02 -.134262395107403D+02 -.287674366655641D+02
 0.680415053737563D+02 0.321723977660358D+02 0.161369101239968D+02 -.577423883049613D+02
 0.881604827745170D+02 0.160859677577084D+02 -.543714519788978D+01 0.865098249705254D+02
 0.933879574772436D+01 0.232222215574307D+01 0.272647458463331D+01 0.862477400378927D+01
 0.107945082104600D+03 0.000000000000000D+00 0.000000000000000D+00 0.107945082104600D+03
 0.107945082104600D+03 0.000000000000000D+00 0.000000000000000D+00 -.107945082104600D+03
 0.590124664061026D+02 -.499420702296538D+02 -.126765689443347D+02 -.287674366655641D+02
 0.686007222277097D+02 0.329072431487359D+02 0.169996773896574D+02 -.577423883049613D+02
 0.000000000000000D+00 0.000000000000000D+00 0.000000000000000D+00 0.000000000000000D+00
 0.882769755753885D+02 0.170348270809179D+02 -.432310844532276D+01 0.865098249705254D+02
 0.116941718857856D+03 0.000000000000000D+00 0.000000000000000D+00 0.116941718857856D+03
 0.108316944854067D+03 0.000000000000000D+00 0.000000000000000D+00 -.108316944854067D+03
 0.597178798159253D+02 -.505805876794872D+02 -.134262395107403D+02 -.287674366655641D+02
 0.680415053737563D+02 0.321723977660358D+02 0.161369101239968D+02 -.577423883049613D+02
 0.933879574772436D+01 0.232222215574307D+01 0.272647458463331D+01 0.862477400378927D+01
 0.881604827745170D+02 0.160859677577084D+02 -.543714519788978D+01 0.865098249705254D+02
0.586118300360D-03 0.000000000000D+00 0.000000000000D+00 0.102547010750D-01 0.000000000000D+00  6 21 -1 -11 11 -1 21 2 0.16877598D-01 0.16340614D-01 0.28163955D+04 0.30887460D+03 0.31019003D+04 0.14066761D+01  1  2  2  1  6  1       21 0.103307727496D+02
0.963275914517D-04 0.284558874746D-04 0.129122101753D-05 0.102547010750D-01 0.000000000000D+00  6 21 -1 -11 11 -1 21 4 0.16877598D-01 0.16340614D-01 0.28163955D+04 0.30887460D+03 0.31019003D+04 0.14066761D+01  1  2  3  1  6  1       21 0.117035316817D+01
0.471528701521D-04 0.000000000000D+00 0.000000000000D+00 0.102547010750D-01 0.000000000000D+00  6 21 -1 -11 11 -1 21 4 0.16877598D-01 0.16340614D-01 0.28163955D+04 0.30887460D+03 0.31019003D+04 0.14066761D+01  1  2 15  1  6  1       21 0.164453779811D+01
0.613700645099D-03 0.000000000000D+00 0.000000000000D+00 0.101757694991D-01 0.000000000000D+00  6 21 -1 -11 11 -1 21 4 0.18347243D-01 0.16340614D-01 0.29640487D+04 0.33316791D+03 0.31470337D+04 0.14012519D+01  1  2 12  1  6  1       21 0.182614666408D+02
0.613700645099D-03 0.000000000000D+00 0.000000000000D+00 0.101757694991D-01 0.000000000000D+00  6 21 -1 -11 11 -1 21 4 0.18347243D-01 0.16340614D-01 0.29640487D+04 0.33316791D+03 0.31470337D+04 0.14012519D+01  1  2 12  1  6  1       21 0.182614666408D+02
-.459142554998D-02 0.000000000000D+00 0.000000000000D+00 0.102547010750D-01 0.000000000000D+00  6 21 -1 -11 11 -1 21 4 0.16877598D-01 0.16340614D-01 0.28163955D+04 0.30887460D+03 0.31019003D+04 0.14066761D+01  1  2  4  1  6  1       21 -.160133897254D+03
-.278786790935D-01 0.000000000000D+00 -.185268417312D-02 0.102547010750D-01 0.000000000000D+00  6 21 -1 -11 11 -1 21 4 0.18329528D-01 0.16340614D-01 0.28163955D+04 0.30887460D+03 0.31019003D+04 0.14066761D+01  1  2  5  1  6  1       21 -.848876975817D+03
0.276121065265D-01 0.000000000000D+00 0.182768998431D-02 0.102547010750D-01 0.000000000000D+00  6 21 -1 -11 11 -1 21 4 0.16877598D-01 0.16340614D-01 0.28163955D+04 0.30887460D+03 0.31019003D+04 0.14066761D+01  1  2  6  1  6  1       21 0.969174828639D+03
0.391106472538D-02 0.000000000000D+00 0.000000000000D+00 0.102547010750D-01 0.105513519206D-01  6 21 -1 -11 11 -1 21 4 0.18284255D-01 0.16396906D-01 0.29640487D+04 0.33316791D+03 0.31470337D+04 0.14012519D+01  1  2 11  1  6  1       21 0.116476303201D+03
0.136267886893D-04 0.000000000000D+00 0.000000000000D+00 0.101757694991D-01 0.000000000000D+00  6 -1 -1 -11 11 -1 -1 4 0.18347243D-01 0.16340614D-01 0.29640487D+04 0.33316791D+03 0.31470337D+04 0.14012519D+01  1  2 12  4  6  1       21 0.327101392295D-01
0.136267886893D-04 0.000000000000D+00 0.000000000000D+00 0.101757694991D-01 0.000000000000D+00  6 -1 -1 -11 11 -1 -1 4 0.18347243D-01 0.16340614D-01 0.29640487D+04 0.33316791D+03 0.31470337D+04 0.14012519D+01  1  2 12  4  6  1       21 0.327101392295D-01
-.560225911872D-03 0.000000000000D+00 -.381840641784D-04 0.102547010750D-01 0.000000000000D+00  6 -1 -1 -11 11 -1 -1 4 0.18329528D-01 0.16340614D-01 0.28163955D+04 0.30887460D+03 0.31019003D+04 0.14066761D+01  1  2  5  4  6  1       21 -.137571779252D+01
0.676154520577D-03 0.000000000000D+00 0.000000000000D+00 0.102547010750D-01 0.370842365294D-03  6 -1 -1 -11 11 -1 -1 4 0.18284255D-01 0.16396906D-01 0.29640487D+04 0.33316791D+03 0.31470337D+04 0.14012519D+01  1  2 11  4  6  1       21 0.162314109826D+01
0.136267886893D-04 0.000000000000D+00 0.000000000000D+00 0.101757694991D-01 0.000000000000D+00  6 1 -1 -11 11 1 -1 4 0.18347243D-01 0.16340614D-01 0.29640487D+04 0.33316791D+03 0.31470337D+04 0.14012519D+01  3  4 12  5  5  1       21 0.444917259276D-01
0.136267886893D-04 0.000000000000D+00 0.000000000000D+00 0.101757694991D-01 0.000000000000D+00  6 1 -1 -11 11 1 -1 4 0.18347243D-01 0.16340614D-01 0.29640487D+04 0.33316791D+03 0.31470337D+04 0.14012519D+01  3  4 12  5  5  1       21 0.444917259276D-01
-.560225911872D-03 0.000000000000D+00 -.381840641784D-04 0.102547010750D-01 0.000000000000D+00  6 1 -1 -11 11 1 -1 4 0.18329528D-01 0.16340614D-01 0.28163955D+04 0.30887460D+03 0.31019003D+04 0.14066761D+01  3  4  5  5  5  1       21 -.187076902097D+01
0.415552070631D-03 0.000000000000D+00 0.000000000000D+00 0.102547010750D-01 0.101781337887D-02  6 1 -1 -11 11 1 -1 4 0.18284255D-01 0.16396906D-01 0.29640487D+04 0.33316791D+03 0.31470337D+04 0.14012519D+01  3  4 11  5  5  1       21 0.135563800288D+01
0.136267886893D-04 0.000000000000D+00 0.000000000000D+00 0.101757694991D-01 0.000000000000D+00  6 -2 -1 -11 11 -1 -2 4 0.18347243D-01 0.16340614D-01 0.29640487D+04 0.33316791D+03 0.31470337D+04 0.14012519D+01  1  2 12  6  6  1       21 0.304445973371D-01
0.136267886893D-04 0.000000000000D+00 0.000000000000D+00 0.101757694991D-01 0.000000000000D+00  6 -4 -1 -11 11 -1 -4 4 0.18347243D-01 0.16340614D-01 0.29640487D+04 0.33316791D+03 0.31470337D+04 0.14012519D+01  1  2 12  6  6  1       21 0.156645340655D-01
0.136267886893D-04 0.000000000000D+00 0.000000000000D+00 0.101757694991D-01 0.000000000000D+00  6 -2 -1 -11 11 -1 -2 4 0.18347243D-01 0.16340614D-01 0.29640487D+04 0.33316791D+03 0.31470337D+04 0.14012519D+01  1  2 12  6  6  1       21 0.304445973371D-01
0.136267886893D-04 0.000000000000D+00 0.000000000000D+00 0.101757694991D-01 0.000000000000D+00  6 -4 -1 -11 11 -1 -4 4 0.18347243D-01 0.16340614D-01 0.29640487D+04 0.33316791D+03 0.31470337D+04 0.14012519D+01  1  2 12  6  6  1       21 0.156645340655D-01
-.560225911872D-03 0.000000000000D+00 -.381840641784D-04 0.102547010750D-01 0.000000000000D+00  6 -2 -1 -11 11 -1 -2 4 0.18329528D-01 0.16340614D-01 0.28163955D+04 0.30887460D+03 0.31019003D+04 0.14066761D+01  1  2  5  6  6  1       21 -.128049631128D+01
-.560225911872D-03 0.000000000000D+00 -.381840641784D-04 0.102547010750D-01 0.000000000000D+00  6 -4 -1 -11 11 -1 -4 4 0.18329528D-01 0.16340614D-01 0.28163955D+04 0.30887460D+03 0.31019003D+04 0.14066761D+01  1  2  5  6  6  1       21 -.658571042838D+00
0.395998977208D-03 0.000000000000D+00 0.000000000000D+00 0.102547010750D-01 0.335866795631D-03  6 -2 -1 -11 11 -1 -2 4 0.18284255D-01 0.16396906D-01 0.29640487D+04 0.33316791D+03 0.31470337D+04 0.14012519D+01  1  2 11  6  6  1       21 0.884973446183D+00
0.395998977208D-03 0.000000000000D+00 0.000000000000D+00 0.102547010750D-01 0.335866795631D-03  6 -4 -1 -11 11 -1 -4 4 0.18284255D-01 0.16396906D-01 0.29640487D+04 0.33316791D+03 0.31470337D+04 0.14012519D+01  1  2 11  6  6  1       21 0.455688875293D+00
0.136267886893D-04 0.000000000000D+00 0.000000000000D+00 0.101757694991D-01 0.000000000000D+00  6 2 -1 -11 11 2 -1 4 0.18347243D-01 0.16340614D-01 0.29640487D+04 0.33316791D+03 0.31470337D+04 0.14012519D+01  3  4 12  7  5  1       21 0.531340446690D-01
0.136267886893D-04 0.000000000000D+00 0.000000000000D+00 0.101757694991D-01 0.000000000000D+00  6 4 -1 -11 11 4 -1 4 0.18347243D-01 0.16340614D-01 0.29640487D+04 0.33316791D+03 0.31470337D+04 0.14012519D+01  3  4 12  7  5  1       21 0.156159551612D-01
0.136267886893D-04 0.000000000000D+00 0.000000000000D+00 0.101757694991D-01 0.000000000000D+00  6 2 -1 -11 11 2 -1 4 0.18347243D-01 0.16340614D-01 0.29640487D+04 0.33316791D+03 0.31470337D+04 0.14012519D+01  3  4 12  7  5  1       21 0.531340446690D-01
0.136267886893D-04 0.000000000000D+00 0.000000000000D+00 0.101757694991D-01 0.000000000000D+00  6 4 -1 -11 11 4 -1 4 0.18347243D-01 0.16340614D-01 0.29640487D+04 0.33316791D+03 0.31470337D+04 0.14012519D+01  3  4 12  7  5  1       21 0.156159551612D-01
-.560225911872D-03 0.000000000000D+00 -.381840641784D-04 0.102547010750D-01 0.000000000000D+00  6 2 -1 -11 11 2 -1 4 0.18329528D-01 0.16340614D-01 0.28163955D+04 0.30887460D+03 0.31019003D+04 0.14066761D+01  3  4  5  7  5  1       21 -.223387284177D+01
-.560225911872D-03 0.000000000000D+00 -.381840641784D-04 0.102547010750D-01 0.000000000000D+00  6 4 -1 -11 11 4 -1 4 0.18329528D-01 0.16340614D-01 0.28163955D+04 0.30887460D+03 0.31019003D+04 0.14066761D+01  3  4  5  7  5  1       21 -.656529136169D+00
0.394597846966D-03 0.000000000000D+00 0.000000000000D+00 0.102547010750D-01 0.334678426085D-03  6 2 -1 -11 11 2 -1 4 0.18284255D-01 0.16396906D-01 0.29640487D+04 0.33316791D+03 0.31470337D+04 0.14012519D+01  3  4 11  7  5  1       21 0.153671266025D+01
0.394597846966D-03 0.000000000000D+00 0.000000000000D+00 0.102547010750D-01 0.334678426085D-03  6 4 -1 -11 11 4 -1 4 0.18284255D-01 0.16396906D-01 0.29640487D+04 0.33316791D+03 0.31470337D+04 0.14012519D+01  3  4 11  7  5  1       21 0.452672786710D+00
0.136267886893D-04 0.000000000000D+00 0.000000000000D+00 0.101757694991D-01 0.000000000000D+00  6 -3 -1 -11 11 -1 -3 4 0.18347243D-01 0.16340614D-01 0.29640487D+04 0.33316791D+03 0.31470337D+04 0.14012519D+01  1  2 12  8  6  1       21 0.249517057325D-01
0.136267886893D-04 0.000000000000D+00 0.000000000000D+00 0.101757694991D-01 0.000000000000D+00  6 -5 -1 -11 11 -1 -5 4 0.18347243D-01 0.16340614D-01 0.29640487D+04 0.33316791D+03 0.31470337D+04 0.14012519D+01  1  2 12  8  6  1       21 0.992439404428D-02
0.136267886893D-04 0.000000000000D+00 0.000000000000D+00 0.101757694991D-01 0.000000000000D+00  6 -3 -1 -11 11 -1 -3 4 0.18347243D-01 0.16340614D-01 0.29640487D+04 0.33316791D+03 0.31470337D+04 0.14012519D+01  1  2 12  8  6  1       21 0.249517057325D-01
0.136267886893D-04 0.000000000000D+00 0.000000000000D+00 0.101757694991D-01 0.000000000000D+00  6 -5 -1 -11 11 -1 -5 4 0.18347243D-01 0.16340614D-01 0.29640487D+04 0.33316791D+03 0.31470337D+04 0.14012519D+01  1  2 12  8  6  1       21 0.992439404428D-02
-.560225911872D-03 0.000000000000D+00 -.381840641784D-04 0.102547010750D-01 0.000000000000D+00  6 -3 -1 -11 11 -1 -3 4 0.18329528D-01 0.16340614D-01 0.28163955D+04 0.30887460D+03 0.31019003D+04 0.14066761D+01  1  2  5  8  6  1       21 -.104948617305D+01
-.560225911872D-03 0.000000000000D+00 -.381840641784D-04 0.102547010750D-01 0.000000000000D+00  6 -5 -1 -11 11 -1 -5 4 0.18329528D-01 0.16340614D-01 0.28163955D+04 0.30887460D+03 0.31019003D+04 0.14066761D+01  1  2  5  8  6  1       21 -.416893564424D+00
0.389444180215D-03 0.000000000000D+00 0.000000000000D+00 0.102547010750D-01 0.330307340206D-03  6 -3 -1 -11 11 -1 -3 4 0.18284255D-01 0.16396906D-01 0.29640487D+04 0.33316791D+03 0.31470337D+04 0.14012519D+01  1  2 11  8  6  1       21 0.713622067846D+00
0.389444180215D-03 0.000000000000D+00 0.000000000000D+00 0.102547010750D-01 0.330307340206D-03  6 -5 -1 -11 11 -1 -5 4 0.18284255D-01 0.16396906D-01 0.29640487D+04 0.33316791D+03 0.31470337D+04 0.14012519D+01  1  2 11  8  6  1       21 0.283950934004D+00
0.136267886893D-04 0.000000000000D+00 0.000000000000D+00 0.101757694991D-01 0.000000000000D+00  6 3 -1 -11 11 3 -1 4 0.18347243D-01 0.16340614D-01 0.29640487D+04 0.33316791D+03 0.31470337D+04 0.14012519D+01  3  4 12  9  5  1       21 0.249996047242D-01
0.136267886893D-04 0.000000000000D+00 0.000000000000D+00 0.101757694991D-01 0.000000000000D+00  6 5 -1 -11 11 5 -1 4 0.18347243D-01 0.16340614D-01 0.29640487D+04 0.33316791D+03 0.31470337D+04 0.14012519D+01  3  4 12  9  5  1       21 0.990819559695D-02
0.136267886893D-04 0.000000000000D+00 0.000000000000D+00 0.101757694991D-01 0.000000000000D+00  6 3 -1 -11 11 3 -1 4 0.18347243D-01 0.16340614D-01 0.29640487D+04 0.33316791D+03 0.31470337D+04 0.14012519D+01  3  4 12  9  5  1       21 0.249996047242D-01
0.136267886893D-04 0.000000000000D+00 0.000000000000D+00 0.101757694991D-01 0.000000000000D+00  6 5 -1 -11 11 5 -1 4 0.18347243D-01 0.16340614D-01 0.29640487D+04 0.33316791D+03 0.31470337D+04 0.14012519D+01  3  4 12  9  5  1       21 0.990819559695D-02
-.560225911872D-03 0.000000000000D+00 -.381840641784D-04 0.102547010750D-01 0.000000000000D+00  6 3 -1 -11 11 3 -1 4 0.18329528D-01 0.16340614D-01 0.28163955D+04 0.30887460D+03 0.31019003D+04 0.14066761D+01  3  4  5  9  5  1       21 -.105148984874D+01
-.560225911872D-03 0.000000000000D+00 -.381840641784D-04 0.102547010750D-01 0.000000000000D+00  6 5 -1 -11 11 5 -1 4 0.18329528D-01 0.16340614D-01 0.28163955D+04 0.30887460D+03 0.31019003D+04 0.14066761D+01  3  4  5  9  5  1       21 -.416213296013D+00
0.391803200287D-03 0.000000000000D+00 0.000000000000D+00 0.102547010750D-01 0.332308144648D-03  6 3 -1 -11 11 3 -1 4 0.18284255D-01 0.16396906D-01 0.29640487D+04 0.33316791D+03 0.31470337D+04 0.14012519D+01  3  4 11  9  5  1       21 0.719309062716D+00
0.391803200287D-03 0.000000000000D+00 0.000000000000D+00 0.102547010750D-01 0.332308144648D-03  6 5 -1 -11 11 5 -1 4 0.18284255D-01 0.16396906D-01 0.29640487D+04 0.33316791D+03 0.31470337D+04 0.14012519D+01  3  4 11  9  5  1       21 0.285206169836D+00
  </mgrwgt>
  </event>
  <event npLO=' -1 ' npNLO=' 1 '>
  7     66 0.19695947E+02 0.14837181E+02 0.75467711E-02 0.14515251E+00
       21 -1    0    0  503  502 0.00000000E+00 0.00000000E+00 0.46974710E+02 0.46974710E+02 0.00000000E+00 0.0000E+00 0.9000E+01
       -1 -1    0    0    0  501 0.00000000E+00 0.00000000E+00 -.43218238E+03 0.43218238E+03 0.00000000E+00 0.0000E+00 0.9000E+01
       23  2    1    2    0    0 0.16919842E+02 -.21635617E+02 -.32718894E+03 0.34071163E+03 0.90980410E+02 0.0000E+00 0.0000E+00
      -13  1    3    3    0    0 0.10743720E+02 -.31362035E+02 -.34680866E+02 0.47976736E+02 0.00000000E+00 0.0000E+00 0.9000E+01
       13  1    3    3    0    0 0.61761223E+01 0.97264177E+01 -.29250807E+03 0.29273490E+03 0.00000000E+00 0.0000E+00 0.9000E+01
       -1  1    1    2    0  502 0.98272096E+01 0.21698227E+02 -.92095078E+02 0.95125656E+02 0.00000000E+00 0.0000E+00 0.9000E+01
       21  1    1    2  503  501 -.26747052E+02 -.62609891E-01 0.34076340E+02 0.43319806E+02 0.00000000E+00 0.0000E+00 0.9000E+01
#aMCatNLO 2  0  0  1  5 0.74055528D+01 0.00000000D+00  -5  6  0 0.00000000D+00 0.00000000D+00 0.00000000D+00 0.00000000D+00 0.00000000D+00
  <mgrwgt>
 0.5846807573D+03    1    2    0
 0.579647486486758D+02 0.000000000000000D+00 0.000000000000000D+00 0.579647486486758D+02
 0.579647486486758D+02 0.000000000000000D+00 0.000000000000000D+00 -.579647486486758D+02
 0.524760209128291D+02 -.132667372173743D+01 -.313902896509048D+02 0.420312077308282D+02
 0.411890245241320D+02 -.324235655403349D+01 0.970437076150056D+01 -.398979705417380D+02
 0.222644518603905D+02 0.456903027577092D+01 0.216859188894042D+02 -.213323718909017D+01
 0.000000000000000D+00 -.000000000000000D+00 -.000000000000000D+00 0.000000000000000D+00
 0.337626107539421D+03 0.000000000000000D+00 0.000000000000000D+00 0.337626107539421D+03
 0.601305460588079D+02 0.000000000000000D+00 0.000000000000000D+00 -.601305460588079D+02
 0.535315531855686D+02 0.107437199211598D+02 -.313620350966419D+02 0.420312077308282D+02
 0.415282523170566D+02 0.617612227668567D+01 0.972641767472222D+01 -.398979705417380D+02
 0.239152214738424D+02 0.982720961045887D+01 0.216982273126198D+02 -.213323718909017D+01
 0.278781626621761D+03 -.267470518083043D+02 -.626098907001476D-01 0.277495561480613D+03
0.466840653381D-01 0.000000000000D+00 0.000000000000D+00 0.110464714524D-02 0.837778023784D-03  6 21 -1 -13 13 -1 21 4 0.72268785D-02 0.66489598D-01 0.22676584D+04 0.67674650D+03 0.36385560D+04 0.13534718D+01  1  2  1  1  6  1       21 0.584680757295D+03
  </mgrwgt>
  </event>
  <event npLO=' -1 ' npNLO=' 1 '>
  6     66 0.19695947E+02 0.27813548E+02 0.75467711E-02 0.14390147E+00
       21 -1    0    0  501  502 0.00000000E+00 0.00000000E+00 0.63338044E+01 0.63338044E+01 0.00000000E+00 0.0000E+00 0.9000E+01
       -1 -1    0    0    0  501 0.00000000E+00 0.00000000E+00 -.65433524E+03 0.65433524E+03 0.00000000E+00 0.0000E+00 0.9000E+01
       23  2    1    2    0    0 0.24770194E+02 0.12650335E+02 -.49395264E+03 0.50412952E+03 0.96869819E+02 0.0000E+00 0.0000E+00
      -11  1    3    3    0    0 0.52296466E+02 -.18165209E+02 -.35048007E+03 0.35482555E+03 0.00000000E+00 0.0000E+00 0.9000E+01
       11  1    3    3    0    0 -.27526273E+02 0.30815544E+02 -.14347258E+03 0.14930396E+03 0.00000000E+00 0.0000E+00 0.9000E+01
       -1  1    1    2    0  502 -.24770194E+02 -.12650335E+02 -.15404879E+03 0.15653952E+03 0.00000000E+00 0.0000E+00 0.9000E+01
#aMCatNLO 1  0  0  2  1 0.37834448D+01 0.00000000D+00  -5  6  0 0.00000000D+00 0.00000000D+00 0.00000000D+00 0.00000000D+00 0.00000000D+00
  <mgrwgt>
 0.5251732411D+02   11    4    0
 0.643772583079679D+02 0.000000000000000D+00 0.000000000000000D+00 0.643772583079679D+02
 0.643772583079679D+02 0.000000000000000D+00 0.000000000000000D+00 -.643772583079679D+02
 0.567799265533223D+02 0.522964663649973D+02 -.181652092057807D+02 -.126120910100426D+02
 0.440378466807024D+02 -.275262727921393D+02 0.308155442560595D+02 0.152328092828807D+02
 0.279367433819111D+02 -.247701935728580D+02 -.126503350502788D+02 -.262071827283816D+01
 0.000000000000000D+00 -.000000000000000D+00 -.000000000000000D+00 -.000000000000000D+00
 0.644887223638256D+02 0.000000000000000D+00 0.000000000000000D+00 0.644887223638256D+02
 0.106987363810668D+03 0.000000000000000D+00 0.000000000000000D+00 -.106987363810668D+03
 0.582827536989764D+02 0.539766823171746D+02 -.180092283321847D+02 -.126120910100426D+02
 0.433362756148553D+02 -.262503821752462D+02 0.309339900622536D+02 0.152328092828807D+02
 0.271908827252889D+02 -.239651861057290D+02 -.125756031279855D+02 -.262071827283816D+01
 0.426661741353727D+02 -.376111403619939D+01 -.349158602083377D+00 -.424986414468420D+02
 0.643772583079679D+02 0.000000000000000D+00 0.000000000000000D+00 0.643772583079679D+02
 0.643772583079679D+02 0.000000000000000D+00 0.000000000000000D+00 -.643772583079679D+02
 0.567799265533223D+02 0.522964663649973D+02 -.181652092057807D+02 -.126120910100426D+02
 0.440378466807024D+02 -.275262727921393D+02 0.308155442560595D+02 0.152328092828807D+02
 0.000000000000000D+00 -.000000000000000D+00 -.000000000000000D+00 -.000000000000000D+00
 0.279367433819111D+02 -.247701935728580D+02 -.126503350502788D+02 -.262071827283816D+01
 0.644887223638256D+02 0.000000000000000D+00 0.000000000000000D+00 0.644887223638256D+02
 0.106987363810668D+03 0.000000000000000D+00 0.000000000000000D+00 -.106987363810668D+03
 0.582827536989764D+02 0.539766823171746D+02 -.180092283321847D+02 -.126120910100426D+02
 0.433362756148553D+02 -.262503821752462D+02 0.309339900622536D+02 0.152328092828807D+02
 0.426661741353727D+02 -.376111403619939D+01 -.349158602083377D+00 -.424986414468420D+02
 0.271908827252889D+02 -.239651861057290D+02 -.125756031279855D+02 -.262071827283816D+01
0.151449083557D-03 0.000000000000D+00 0.000000000000D+00 0.365942923751D-04 0.000000000000D+00  6 21 -1 -11 11 -1 21 2 0.97443144D-03 0.10066696D+00 0.38747171D+04 0.77359424D+03 0.41343143D+04 0.13450122D+01  1  2  2  2  6  2       -1 0.955555583539D+01
-.107977778812D-04 0.735281269527D-05 0.333642951694D-06 0.365942923751D-04 0.000000000000D+00  6 21 -1 -11 11 -1 21 4 0.97443144D-03 0.10066696D+00 0.38747171D+04 0.77359424D+03 0.41343143D+04 0.13450122D+01  1  2  3  2  6  2       -1 -.258219523065D+01
0.109292490274D-04 0.000000000000D+00 0.000000000000D+00 0.365942923751D-04 0.000000000000D+00  6 21 -1 -11 11 -1 21 4 0.97443144D-03 0.10066696D+00 0.38747171D+04 0.77359424D+03 0.41343143D+04 0.13450122D+01  1  2 15  2  6  2       -1 0.124747568381D+01
0.178951960518D-02 0.000000000000D+00 0.000000000000D+00 0.365793491025D-04 0.000000000000D+00  6 21 -1 -11 11 -1 21 4 0.97443144D-03 0.16758620D+00 0.41161355D+04 0.77699523D+03 0.41393275D+04 0.13447376D+01  1  2 12  2  6  2       -1 0.557976615224D+02
-.216529574016D-01 0.000000000000D+00 0.000000000000D+00 0.365942923751D-04 0.000000000000D+00  6 21 -1 -11 11 -1 21 4 0.97443144D-03 0.10066696D+00 0.38747171D+04 0.77359424D+03 0.41343143D+04 0.13450122D+01  1  2  4  2  6  2       -1 -.247149074685D+04
-.248430581211D-01 0.000000000000D+00 -.161148894554D-03 0.365942923751D-04 0.000000000000D+00  6 21 -1 -11 11 -1 21 4 0.97443144D-03 0.16738831D+00 0.38747171D+04 0.77359424D+03 0.41343143D+04 0.13450122D+01  1  2  5  2  6  2       -1 -.778408031910D+03
0.220333076442D-01 0.000000000000D+00 0.142345689602D-03 0.365942923751D-04 0.000000000000D+00  6 21 -1 -11 11 -1 21 4 0.97443144D-03 0.10066696D+00 0.38747171D+04 0.77359424D+03 0.41343143D+04 0.13450122D+01  1  2  6  2  6  2       -1 0.251595794343D+04
0.229499322506D-01 0.000000000000D+00 0.000000000000D+00 0.365942923751D-04 0.279647185280D-04  6 21 -1 -11 11 -1 21 4 0.97611859D-03 0.16729654D+00 0.41161355D+04 0.77699523D+03 0.41393275D+04 0.13447376D+01  1  2 11  2  6  2       -1 0.717662508136D+03
0.102449960134D-03 0.000000000000D+00 0.000000000000D+00 0.365793491025D-04 0.000000000000D+00  6 21 21 -11 11 1 -1 4 0.97443144D-03 0.16758620D+00 0.41161355D+04 0.77699523D+03 0.41393275D+04 0.13447376D+01  3  4 12 10  5  2       -1 0.216637537783D+02
-.141222113842D-02 0.000000000000D+00 -.920866708238D-05 0.365942957830D-04 0.000000000000D+00  6 21 21 -11 11 1 -1 4 0.97443144D-03 0.16738831D+00 0.38747171D+04 0.77359347D+03 0.41343134D+04 0.13450123D+01  3  4  5 10  5  2       -1 -.300043477232D+03
0.133554486115D-02 0.000000000000D+00 0.000000000000D+00 0.365942957830D-04 0.162411332402D-05  6 21 21 -11 11 1 -1 4 0.97611859D-03 0.16729654D+00 0.41161355D+04 0.77699523D+03 0.41393275D+04 0.13447376D+01  3  4 11 10  5  2       -1 0.283156876944D+03
  </mgrwgt>
  </event>
  <event npLO=' -1 ' npNLO=' 1 '>
  6     66 0.19695947E+02 0.35964863E+02 0.75467711E-02 0.13510821E+00
       21 -1    0    0  501  502 0.00000000E+00 0.00000000E+00 0.81103044E+02 0.81103044E+02 0.00000000E+00 0.0000E+00 0.9000E+01
       -1 -1    0    0    0  501 0.00000000E+00 0.00000000E+00 -.11247450E+03 0.11247450E+03 0.00000000E+00 0.0000E+00 0.9000E+01
       23  2    1    2    0    0 -.29856433E+02 -.20051552E+02 -.84198022E+02 0.12967044E+03 0.91823985E+02 0.0000E+00 0.0000E+00
      -13  1    3    3    0    0 -.41214485E+02 -.50984621E+02 -.58813402E+02 0.88074296E+02 0.00000000E+00 0.0000E+00 0.9000E+01
       13  1    3    3    0    0 0.11358052E+02 0.30933069E+02 -.25384621E+02 0.41596142E+02 0.00000000E+00 0.0000E+00 0.9000E+01
       -1  1    1    2    0  502 0.29856433E+02 0.20051552E+02 0.52826570E+02 0.63907103E+02 0.00000000E+00 0.0000E+00 0.9000E+01
#aMCatNLO 1  0  0  1  2 0.27095355D+02 0.00000000D+00  -5  6  0 0.00000000D+00 0.00000000D+00 0.00000000D+00 0.00000000D+00 0.00000000D+00
  <mgrwgt>
 0.1595363367D+03   26    4    0
 0.955092878616707D+02 0.000000000000000D+00 0.000000000000000D+00 0.955092878616707D+02
 0.955092878616707D+02 0.000000000000000D+00 0.000000000000000D+00 -.955092878616707D+02
 0.795951056855353D+02 -.412144851121500D+02 -.509846208037662D+02 -.451366315483119D+02
 0.379844026150520D+02 0.113580521143448D+02 0.309330685554214D+02 -.188932465165675D+02
 0.734390674227543D+02 0.298564329978051D+02 0.200515522483448D+02 0.640298780648794D+02
 0.000000000000000D+00 0.000000000000000D+00 0.000000000000000D+00 -.000000000000000D+00
 0.100520603513194D+03 0.000000000000000D+00 0.000000000000000D+00 0.100520603513194D+03
 0.107509577992428D+03 0.000000000000000D+00 0.000000000000000D+00 -.107509577992428D+03
 0.843371387913553D+02 -.424093973128984D+02 -.572440432843539D+02 -.451366315483119D+02
 0.355677322140800D+02 0.108219260850888D+02 0.281246284726677D+02 -.188932465165675D+02
 0.716918635342841D+02 0.287985647263133D+02 0.145100200454524D+02 0.640298780648794D+02
 0.164334469659029D+02 0.278890650149639D+01 0.146093947662339D+02 -.698897447923471D+01
 0.955092878616707D+02 0.000000000000000D+00 0.000000000000000D+00 0.955092878616707D+02
 0.955092878616707D+02 0.000000000000000D+00 0.000000000000000D+00 -.955092878616707D+02
 0.795951056855353D+02 -.412144851121500D+02 -.509846208037662D+02 -.451366315483119D+02
 0.379844026150520D+02 0.113580521143448D+02 0.309330685554214D+02 -.188932465165675D+02
 0.000000000000000D+00 0.000000000000000D+00 0.000000000000000D+00 -.000000000000000D+00
 0.734390674227543D+02 0.298564329978051D+02 0.200515522483448D+02 0.640298780648794D+02
 0.100520603513194D+03 0.000000000000000D+00 0.000000000000000D+00 0.100520603513194D+03
 0.107509577992428D+03 0.000000000000000D+00 0.000000000000000D+00 -.107509577992428D+03
 0.843371387913553D+02 -.424093973128984D+02 -.572440432843539D+02 -.451366315483119D+02
 0.355677322140800D+02 0.108219260850888D+02 0.281246284726677D+02 -.188932465165675D+02
 0.164334469659029D+02 0.278890650149639D+01 0.146093947662339D+02 -.698897447923471D+01
 0.716918635342841D+02 0.287985647263133D+02 0.145100200454524D+02 0.640298780648794D+02
0.290624796321D-02 0.000000000000D+00 0.000000000000D+00 0.279800615622D-02 0.000000000000D+00  6 21 -1 -13 13 -1 21 2 0.12477391D-01 0.17303769D-01 0.45210082D+04 0.12934713D+04 0.45280022D+04 0.13139629D+01  1  2  2  1  6  1       21 0.695759591424D+02
0.169297083402D-04 0.141097565054D-03 0.640247617238D-05 0.279800615622D-02 0.000000000000D+00  6 21 -1 -13 13 -1 21 4 0.12477391D-01 0.17303769D-01 0.45210082D+04 0.12934713D+04 0.45280022D+04 0.13139629D+01  1  2  3  1  6  1       21 -.659795069577D+01
0.243259108813D-03 0.000000000000D+00 0.000000000000D+00 0.279800615622D-02 0.000000000000D+00  6 21 -1 -13 13 -1 21 4 0.12477391D-01 0.17303769D-01 0.45210082D+04 0.12934713D+04 0.45280022D+04 0.13139629D+01  1  2 15  1  6  1       21 0.100545323363D+02
0.176827257530D-02 0.000000000000D+00 0.000000000000D+00 0.284741683705D-02 0.000000000000D+00  6 21 -1 -13 13 -1 21 4 0.14782056D-01 0.17303769D-01 0.55128850D+04 0.10636300D+04 0.42287082D+04 0.13255140D+01  1  2 12  1  6  1       21 0.566638669787D+02
0.176827257530D-02 0.000000000000D+00 0.000000000000D+00 0.284741683705D-02 0.000000000000D+00  6 21 -1 -13 13 -1 21 4 0.14782056D-01 0.17303769D-01 0.55128850D+04 0.10636300D+04 0.42287082D+04 0.13255140D+01  1  2 12  1  6  1       21 0.566638669787D+02
-.724866335578D-03 0.000000000000D+00 0.000000000000D+00 0.279800615622D-02 0.000000000000D+00  6 21 -1 -13 13 -1 21 4 0.12477391D-01 0.17303769D-01 0.45210082D+04 0.12934713D+04 0.45280022D+04 0.13139629D+01  1  2  4  1  6  1       21 -.299606129701D+02
0.832151011944D-04 0.000000000000D+00 0.000000000000D+00 0.284741657993D-02 0.000000000000D+00  6 -1 -1 -13 13 -1 -1 4 0.14782056D-01 0.17303769D-01 0.55128850D+04 0.10636310D+04 0.42287093D+04 0.13255139D+01  1  2 12  4  6  1       21 0.205716819350D+00
0.832151011944D-04 0.000000000000D+00 0.000000000000D+00 0.284741657993D-02 0.000000000000D+00  6 -1 -1 -13 13 -1 -1 4 0.14782056D-01 0.17303769D-01 0.55128850D+04 0.10636310D+04 0.42287093D+04 0.13255139D+01  1  2 12  4  6  1       21 0.205716819350D+00
0.832151011944D-04 0.000000000000D+00 0.000000000000D+00 0.275152874090D-02 0.000000000000D+00  6 1 -1 -13 13 1 -1 4 0.14782056D-01 0.17303769D-01 0.55128850D+04 0.15650133D+04 0.48680995D+04 0.13030042D+01  3  4 12  5  5  1       21 0.249907863595D+00
0.832151011944D-04 0.000000000000D+00 0.000000000000D+00 0.275152874090D-02 0.000000000000D+00  6 1 -1 -13 13 1 -1 4 0.14782056D-01 0.17303769D-01 0.55128850D+04 0.15650133D+04 0.48680995D+04 0.13030042D+01  3  4 12  5  5  1       21 0.249907863595D+00
0.832151011944D-04 0.000000000000D+00 0.000000000000D+00 0.275152874090D-02 0.000000000000D+00  6 -2 -1 -13 13 -1 -2 4 0.14782056D-01 0.17303769D-01 0.55128850D+04 0.15650133D+04 0.48680995D+04 0.13030042D+01  1  2 12  6  6  1       21 0.182566937183D+00
0.832151011944D-04 0.000000000000D+00 0.000000000000D+00 0.275152874090D-02 0.000000000000D+00  6 -4 -1 -13 13 -1 -4 4 0.14782056D-01 0.17303769D-01 0.55128850D+04 0.15650133D+04 0.48680995D+04 0.13030042D+01  1  2 12  6  6  1       21 0.100167345273D+00
0.832151011944D-04 0.000000000000D+00 0.000000000000D+00 0.275152874090D-02 0.000000000000D+00  6 -2 -1 -13 13 -1 -2 4 0.14782056D-01 0.17303769D-01 0.55128850D+04 0.15650133D+04 0.48680995D+04 0.13030042D+01  1  2 12  6  6  1       21 0.182566937183D+00
0.832151011944D-04 0.000000000000D+00 0.000000000000D+00 0.275152874090D-02 0.000000000000D+00  6 -4 -1 -13 13 -1 -4 4 0.14782056D-01 0.17303769D-01 0.55128850D+04 0.15650133D+04 0.48680995D+04 0.13030042D+01  1  2 12  6  6  1       21 0.100167345273D+00
0.832151011944D-04 0.000000000000D+00 0.000000000000D+00 0.275152874090D-02 0.000000000000D+00  6 2 -1 -13 13 2 -1 4 0.14782056D-01 0.17303769D-01 0.55128850D+04 0.15650133D+04 0.48680995D+04 0.13030042D+01  3  4 12  7  5  1       21 0.291400930053D+00
0.832151011944D-04 0.000000000000D+00 0.000000000000D+00 0.275152874090D-02 0.000000000000D+00  6 4 -1 -13 13 4 -1 4 0.14782056D-01 0.17303769D-01 0.55128850D+04 0.15650133D+04 0.48680995D+04 0.13030042D+01  3  4 12  7  5  1       21 0.999187821269D-01
0.832151011944D-04 0.000000000000D+00 0.000000000000D+00 0.275152874090D-02 0.000000000000D+00  6 2 -1 -13 13 2 -1 4 0.14782056D-01 0.17303769D-01 0.55128850D+04 0.15650133D+04 0.48680995D+04 0.13030042D+01  3  4 12  7  5  1       21 0.291400930053D+00
0.832151011944D-04 0.000000000000D+00 0.000000000000D+00 0.275152874090D-02 0.000000000000D+00  6 4 -1 -13 13 4 -1 4 0.14782056D-01 0.17303769D-01 0.55128850D+04 0.15650133D+04 0.48680995D+04 0.13030042D+01  3  4 12  7  5  1       21 0.999187821269D-01
0.832151011944D-04 0.000000000000D+00 0.000000000000D+00 0.275152874090D-02 0.000000000000D+00  6 -3 -1 -13 13 -1 -3 4 0.14782056D-01 0.17303769D-01 0.55128850D+04 0.15650133D+04 0.48680995D+04 0.13030042D+01  1  2 12  8  6  1       21 0.153933744834D+00
0.832151011944D-04 0.000000000000D+00 0.000000000000D+00 0.275152874090D-02 0.000000000000D+00  6 -5 -1 -13 13 -1 -5 4 0.14782056D-01 0.17303769D-01 0.55128850D+04 0.15650133D+04 0.48680995D+04 0.13030042D+01  1  2 12  8  6  1       21 0.653521831251D-01
0.832151011944D-04 0.000000000000D+00 0.000000000000D+00 0.275152874090D-02 0.000000000000D+00  6 -3 -1 -13 13 -1 -3 4 0.14782056D-01 0.17303769D-01 0.55128850D+04 0.15650133D+04 0.48680995D+04 0.13030042D+01  1  2 12  8  6  1       21 0.153933744834D+00
0.832151011944D-04 0.000000000000D+00 0.000000000000D+00 0.275152874090D-02 0.000000000000D+00  6 -5 -1 -13 13 -1 -5 4 0.14782056D-01 0.17303769D-01 0.55128850D+04 0.15650133D+04 0.48680995D+04 0.13030042D+01  1  2 12  8  6  1       21 0.653521831251D-01
0.832151011944D-04 0.000000000000D+00 0.000000000000D+00 0.275152874090D-02 0.000000000000D+00  6 3 -1 -13 13 3 -1 4 0.14782056D-01 0.17303769D-01 0.55128850D+04 0.15650133D+04 0.48680995D+04 0.13030042D+01  3  4 12  9  5  1       21 0.154105664410D+00
0.832151011944D-04 0.000000000000D+00 0.000000000000D+00 0.275152874090D-02 0.000000000000D+00  6 5 -1 -13 13 5 -1 4 0.14782056D-01 0.17303769D-01 0.55128850D+04 0.15650133D+04 0.48680995D+04 0.13030042D+01  3  4 12  9  5  1       21 0.652672182285D-01
0.832151011944D-04 0.000000000000D+00 0.000000000000D+00 0.275152874090D-02 0.000000000000D+00  6 3 -1 -13 13 3 -1 4 0.14782056D-01 0.17303769D-01 0.55128850D+04 0.15650133D+04 0.48680995D+04 0.13030042D+01  3  4 12  9  5  1       21 0.154105664410D+00
0.832151011944D-04 0.000000000000D+00 0.000000000000D+00 0.275152874090D-02 0.000000000000D+00  6 5 -1 -13 13 5 -1 4 0.14782056D-01 0.17303769D-01 0.55128850D+04 0.15650133D+04 0.48680995D+04 0.13030042D+01  3  4 12  9  5  1       21 0.652672182285D-01
  </mgrwgt>
  </event>
  <event npLO=' -1 ' npNLO=' 1 '>
  6     66 -.19695947E+02 0.15664059E+02 0.75467711E-02 0.13626217E+00
       21 -1    0    0  501  502 0.00000000E+00 0.00000000E+00 0.15157046E+03 0.15157046E+03 0.00000000E+00 0.0000E+00 0.9000E+01
       -3 -1    0    0    0  501 0.00000000E+00 0.00000000E+00 -.10549349E+03 0.10549349E+03 0.00000000E+00 0.0000E+00 0.9000E+01
       23  2    1    2    0    0 0.80084509E+01 0.13462075E+02 -.84486611E+02 0.12556410E+03 0.91558686E+02 0.0000E+00 0.0000E+00
      -11  1    3    3    0    0 -.72601328E+01 -.35022083E+02 -.58266686E+02 0.68368579E+02 0.00000000E+00 0.0000E+00 0.9000E+01
       11  1    3    3    0    0 0.15268584E+02 0.48484158E+02 -.26219925E+02 0.57195521E+02 0.00000000E+00 0.0000E+00 0.9000E+01
       -3  1    1    2    0  502 -.80084509E+01 -.13462075E+02 0.13056358E+03 0.13149985E+03 0.00000000E+00 0.0000E+00 0.9000E+01
#aMCatNLO 1  0  0  1  1 0.37970368D+02 0.00000000D+00  -5  6  0 0.00000000D+00 0.00000000D+00 0.00000000D+00 0.00000000D+00 0.00000000D+00
  <mgrwgt>
 -.6552500982D+03   14    4    0
 0.126450374370671D+03 0.000000000000000D+00 0.000000000000000D+00 0.126450374370671D+03
 0.126450374370671D+03 0.000000000000000D+00 0.000000000000000D+00 -.126450374370671D+03
 0.801098828669831D+02 -.726013275660857D+01 -.350220826657009D+02 -.716821981462273D+02
 0.629141731549676D+02 0.152685836936759D+02 0.484841579244018D+02 -.370722263443150D+02
 0.109876692719391D+03 -.800845093706734D+01 -.134620752587010D+02 0.108754424490542D+03
 0.000000000000000D+00 0.000000000000000D+00 -.000000000000000D+00 0.000000000000000D+00
 0.451383564584516D+03 0.000000000000000D+00 0.000000000000000D+00 0.451383564584516D+03
 0.128952006095141D+03 0.000000000000000D+00 0.000000000000000D+00 -.128952006095141D+03
 0.766790874683287D+02 -.120484706144546D+02 -.244167827477996D+02 -.716821981462273D+02
 0.692686178557415D+02 0.112317189767336D+02 0.574250811261796D+02 -.370722263443150D+02
 0.109754399108842D+03 -.147159882690115D+02 0.139390341858193D+01 0.108754424490542D+03
 0.324633466246745D+03 0.155327399067325D+02 -.344022017969620D+02 0.322431558489375D+03
 0.126450374370671D+03 0.000000000000000D+00 0.000000000000000D+00 0.126450374370671D+03
 0.126450374370671D+03 0.000000000000000D+00 0.000000000000000D+00 -.126450374370671D+03
 0.801098828669831D+02 -.726013275660857D+01 -.350220826657009D+02 -.716821981462273D+02
 0.629141731549676D+02 0.152685836936759D+02 0.484841579244018D+02 -.370722263443150D+02
 0.000000000000000D+00 0.000000000000000D+00 -.000000000000000D+00 0.000000000000000D+00
 0.109876692719391D+03 -.800845093706734D+01 -.134620752587010D+02 0.108754424490542D+03
 0.451383564584516D+03 0.000000000000000D+00 0.000000000000000D+00 0.451383564584516D+03
 0.128952006095141D+03 0.000000000000000D+00 0.000000000000000D+00 -.128952006095141D+03
 0.766790874683287D+02 -.120484706144546D+02 -.244167827477996D+02 -.716821981462273D+02
 0.692686178557415D+02 0.112317189767336D+02 0.574250811261796D+02 -.370722263443150D+02
 0.324633466246745D+03 0.155327399067325D+02 -.344022017969620D+02 0.322431558489375D+03
 0.109754399108842D+03 -.147159882690115D+02 0.139390341858193D+01 0.108754424490542D+03
0.294804039607D-02 0.000000000000D+00 0.000000000000D+00 0.357645761204D-01 0.000000000000D+00  6 21 -3 -11 11 -3 21 2 0.23318532D-01 0.16229768D-01 0.26143926D+04 0.24536276D+03 0.29459386D+04 0.14235733D+01  1  2  2  1  6  1       21 0.238200060199D+02
0.690036184196D-03 0.143126576545D-03 0.649454507323D-05 0.357645761204D-01 0.000000000000D+00  6 21 -3 -11 11 -3 21 4 0.23318532D-01 0.16229768D-01 0.26143926D+04 0.24536276D+03 0.29459386D+04 0.14235733D+01  1  2  3  1  6  1       21 0.576656015654D+01
0.243973486182D-03 0.000000000000D+00 0.000000000000D+00 0.357645761204D-01 0.000000000000D+00  6 21 -3 -11 11 -3 21 4 0.23318532D-01 0.16229768D-01 0.26143926D+04 0.24536276D+03 0.29459386D+04 0.14235733D+01  1  2 15  1  6  1       21 0.399494422705D+01
-.361763831539D+00 0.000000000000D+00 -.825118558486D-02 0.357645761204D-01 0.000000000000D+00  6 21 -3 -11 11 -3 21 4 0.83714132D-01 0.16229768D-01 0.26143926D+04 0.24536276D+03 0.29459386D+04 0.14235733D+01  1  2  5  1  6  1       21 -.459023099753D+03
-.140286456123D+00 0.000000000000D+00 -.315033524983D-02 0.357645761204D-01 0.000000000000D+00  6 -3 -3 -11 11 -3 -3 4 0.83714132D-01 0.16229768D-01 0.26143926D+04 0.24536276D+03 0.29459386D+04 0.14235733D+01  1  2  5  4  6  1       21 -.103566325015D+02
-.140286456123D+00 0.000000000000D+00 -.315033524983D-02 0.357645761204D-01 0.000000000000D+00  6 3 -3 -11 11 3 -3 4 0.83714132D-01 0.16229768D-01 0.26143926D+04 0.24536276D+03 0.29459386D+04 0.14235733D+01  3  4  5  5  5  1       21 -.120414546137D+02
-.140286456123D+00 0.000000000000D+00 -.315033524983D-02 0.357645761204D-01 0.000000000000D+00  6 -2 -3 -11 11 -3 -2 4 0.83714132D-01 0.16229768D-01 0.26143926D+04 0.24536276D+03 0.29459386D+04 0.14235733D+01  1  2  5  6  6  1       21 -.172354084787D+02
-.140286456123D+00 0.000000000000D+00 -.315033524983D-02 0.357645761204D-01 0.000000000000D+00  6 -4 -3 -11 11 -3 -4 4 0.83714132D-01 0.16229768D-01 0.26143926D+04 0.24536276D+03 0.29459386D+04 0.14235733D+01  1  2  5  6  6  1       21 -.569531561471D+01
-.140286456123D+00 0.000000000000D+00 -.315033524983D-02 0.357645761204D-01 0.000000000000D+00  6 2 -3 -11 11 2 -3 4 0.83714132D-01 0.16229768D-01 0.26143926D+04 0.24536276D+03 0.29459386D+04 0.14235733D+01  3  4  5  7  5  1       21 -.912717423173D+02
-.140286456123D+00 0.000000000000D+00 -.315033524983D-02 0.357645761204D-01 0.000000000000D+00  6 4 -3 -11 11 4 -3 4 0.83714132D-01 0.16229768D-01 0.26143926D+04 0.24536276D+03 0.29459386D+04 0.14235733D+01  3  4  5  7  5  1       21 -.564077685800D+01
-.140286456123D+00 0.000000000000D+00 -.315033524983D-02 0.357645761204D-01 0.000000000000D+00  6 -1 -3 -11 11 -3 -1 4 0.83714132D-01 0.16229768D-01 0.26143926D+04 0.24536276D+03 0.29459386D+04 0.14235733D+01  1  2  5  8  6  1       21 -.223302281110D+02
-.140286456123D+00 0.000000000000D+00 -.315033524983D-02 0.357645761204D-01 0.000000000000D+00  6 -5 -3 -11 11 -3 -5 4 0.83714132D-01 0.16229768D-01 0.26143926D+04 0.24536276D+03 0.29459386D+04 0.14235733D+01  1  2  5  8  6  1       21 -.339978833372D+01
-.140286456123D+00 0.000000000000D+00 -.315033524983D-02 0.357645761204D-01 0.000000000000D+00  6 1 -3 -11 11 1 -3 4 0.83714132D-01 0.16229768D-01 0.26143926D+04 0.24536276D+03 0.29459386D+04 0.14235733D+01  3  4  5  9  5  1       21 -.584554877865D+02
-.140286456123D+00 0.000000000000D+00 -.315033524983D-02 0.357645761204D-01 0.000000000000D+00  6 5 -3 -11 11 5 -3 4 0.83714132D-01 0.16229768D-01 0.26143926D+04 0.24536276D+03 0.29459386D+04 0.14235733D+01  3  4  5  9  5  1       21 -.338167420162D+01
  </mgrwgt>
  </event>
  <event npLO=' -1 ' npNLO=' 1 '>
  6     66 0.19695947E+02 0.23075420E+02 0.75467711E-02 0.12051985E+00
       21 -1    0    0  501  502 0.00000000E+00 0.00000000E+00 0.34514011E+02 0.34514011E+02 0.00000000E+00 0.0000E+00 0.9000E+01
       -1 -1    0    0    0  501 0.00000000E+00 0.00000000E+00 -.16008509E+03 0.16008509E+03 0.00000000E+00 0.0000E+00 0.9000E+01
       23  2    1    2    0    0 0.22674590E+02 0.42822870E+01 -.31892068E+02 0.98119922E+02 0.89877361E+02 0.0000E+00 0.0000E+00
      -13  1    3    3    0    0 -.28205455E+02 0.43960157E+01 -.37281495E+02 0.46955111E+02 0.00000000E+00 0.0000E+00 0.9000E+01
       13  1    3    3    0    0 0.50880045E+02 -.11372870E+00 0.53894269E+01 0.51164810E+02 0.00000000E+00 0.0000E+00 0.9000E+01
       -1  1    1    2    0  502 -.22674590E+02 -.42822870E+01 -.93679006E+02 0.96479175E+02 0.00000000E+00 0.0000E+00 0.9000E+01
#aMCatNLO 1  0  0  2  2 0.47218493D+02 0.00000000D+00  -5  6  0 0.00000000D+00 0.00000000D+00 0.00000000D+00 0.00000000D+00 0.00000000D+00
  <mgrwgt>
 0.8308343590D+02    3    2    0
 0.743315441994171D+02 0.000000000000000D+00 0.000000000000000D+00 0.743315441994171D+02
 0.743315441994171D+02 0.000000000000000D+00 0.000000000000000D+00 -.743315441994171D+02
 0.299734453147079D+02 -.282054550047122D+02 0.439601572189422D+01 -.913973619880808D+01
 0.715267126461252D+02 0.508800449231691D+02 -.113728701135147D+00 0.502720470675325D+02
 0.471629304380011D+02 -.226745899184569D+02 -.428228702075907D+01 -.411323108687244D+02
 0.000000000000000D+00 0.000000000000000D+00 0.000000000000000D+00 0.000000000000000D+00
 0.149061195050850D+03 0.000000000000000D+00 0.000000000000000D+00 0.149061195050850D+03
 0.133242052702427D+03 0.000000000000000D+00 0.000000000000000D+00 -.133242052702427D+03
 0.369943349947168D+02 -.321492738746069D+02 -.158578130034707D+02 -.913973619880808D+01
 0.799873089999490D+02 0.419571889637738D+02 -.459378403818823D+02 0.502720470675325D+02
 0.628703291722091D+02 -.291545903539155D+02 -.375608992719280D+02 -.411323108687244D+02
 0.102451274586402D+03 0.193466752647485D+02 0.993565526572810D+02 0.158191423484228D+02
0.189952806834D-02 0.000000000000D+00 0.000000000000D+00 0.313415964009D-03 0.000000000000D+00  6 21 -1 -13 13 -1 21 2 0.53098479D-02 0.24628475D-01 0.26266428D+04 0.53247554D+03 0.33563341D+04 0.13690657D+01  1  2  2  2  6  2       -1 0.113272065976D+03
-.233890091101D-03 0.922215821179D-04 0.418466811857D-05 0.313415964009D-03 0.000000000000D+00  6 21 -1 -13 13 -1 21 4 0.53098479D-02 0.24628475D-01 0.26266428D+04 0.53247554D+03 0.33563341D+04 0.13690657D+01  1  2  3  2  6  2       -1 -.424774445252D+02
0.109947232073D-03 0.000000000000D+00 0.000000000000D+00 0.313415964009D-03 0.000000000000D+00  6 21 -1 -13 13 -1 21 4 0.53098479D-02 0.24628475D-01 0.26266428D+04 0.53247554D+03 0.33563341D+04 0.13690657D+01  1  2 15  2  6  2       -1 0.122888144502D+02
  </mgrwgt>
  </event>
  <event npLO=' -1 ' npNLO=' 1 '>
  6     66 0.19695947E+02 0.26255046E+02 0.75467711E-02 0.14745610E+00
       21 -1    0    0  501  502 0.00000000E+00 0.00000000E+00 0.34390684E+02 0.34390684E+02 0.00000000E+00 0.0000E+00 0.9000E+01
       -1 -1    0    0    0  501 -.00000000E+00 -.00000000E+00 -.11747962E+03 0.11747962E+03 0.00000000E+00 0.0000E+00 0.9000E+01
       23  2    1    2    0    0 -.16480165E+02 0.20438484E+02 -.43804817E+02 0.10462023E+03 0.91308286E+02 0.0000E+00 0.0000E+00
      -13  1    3    3    0    0 -.15552127E+01 0.48018349E+02 -.53394717E+02 0.71827406E+02 0.00000000E+00 0.0000E+00 0.9000E+01
       13  1    3    3    0    0 -.14924952E+02 -.27579865E+02 0.95898996E+01 0.32792824E+02 0.00000000E+00 0.0000E+00 0.9000E+01
       -1  1    1    2    0  502 0.16480165E+02 -.20438484E+02 -.39284122E+02 0.47250076E+02 0.00000000E+00 0.0000E+00 0.9000E+01
#aMCatNLO 1  0  0  5  1 0.50665606D+01 0.00000000D+00  -5  6  0 0.00000000D+00 0.00000000D+00 0.00000000D+00 0.00000000D+00 0.00000000D+00
  <mgrwgt>
 0.1845554346D+02    8    2    0
 0.635626035223732D+02 0.000000000000000D+00 0.000000000000000D+00 0.635626035223732D+02
 0.635626035223732D+02 -.000000000000000D+00 -.000000000000000D+00 -.635626035223732D+02
 0.509099650821724D+02 -.155521268965340D+01 0.480183488852894D+02 -.168417347232574D+02
 0.454439445555439D+02 -.149249521482885D+02 -.275798648863205D+02 0.328899521585385D+02
 0.307712974070302D+02 0.164801648379419D+02 -.204384839989689D+02 -.160482174352810D+02
 0.000000000000000D+00 0.000000000000000D+00 0.000000000000000D+00 -.000000000000000D+00
 0.635626035223732D+02 0.000000000000000D+00 0.000000000000000D+00 0.635626035223732D+02
 0.635626035223732D+02 -.000000000000000D+00 -.000000000000000D+00 -.635626035223732D+02
 0.502863490136687D+02 -.828842980630047D+00 0.471175147115298D+02 -.175490661816159D+02
 0.452772244039678D+02 -.142737712264521D+02 -.283874509136609D+02 0.322558387788423D+02
 0.268162167061551D+02 0.139704997038309D+02 -.203871728724227D+02 -.104066228300387D+02
 0.474541692095484D+01 0.113211450325125D+01 0.165710907455373D+01 -.430014976718770D+01
0.238787191734D-03 0.000000000000D+00 0.000000000000D+00 0.634068467606D-03 0.000000000000D+00  6 21 -1 -13 13 -1 21 2 0.52908744D-02 0.18073788D-01 0.27908944D+04 0.68932815D+03 0.36761858D+04 0.13522966D+01  1  2  2  3  6  5       -1 0.225621408040D+02
-.246673902796D-04 0.115930546004D-04 0.526049161908D-06 0.634068467606D-03 0.000000000000D+00  6 21 -1 -13 13 -1 21 4 0.52908744D-02 0.18073788D-01 0.27908944D+04 0.68932815D+03 0.36761858D+04 0.13522966D+01  1  2  3  3  6  5       -1 -.703837204906D+01
0.172650249220D-04 0.000000000000D+00 0.000000000000D+00 0.634068467606D-03 0.000000000000D+00  6 21 -1 -13 13 -1 21 4 0.52908744D-02 0.18073788D-01 0.27908944D+04 0.68932815D+03 0.36761858D+04 0.13522966D+01  1  2 15  3  6  5       -1 0.298318653732D+01
0.191492797948D-03 0.000000000000D+00 0.000000000000D+00 0.642487749587D-03 0.000000000000D+00  6 21 -1 -13 13 -1 21 4 0.52908744D-02 0.18073788D-01 0.27889137D+04 0.59988451D+03 0.35419583D+04 0.13612450D+01  1  2 12  3  6  5       -1 0.338813619372D+02
-.712226104292D-03 0.000000000000D+00 0.000000000000D+00 0.634068467606D-03 0.000000000000D+00  6 21 -1 -13 13 -1 21 4 0.52908744D-02 0.18073788D-01 0.27908944D+04 0.68932815D+03 0.36761858D+04 0.13522966D+01  1  2  4  3  6  5       -1 -.123064017309D+03
-.487738458029D-03 0.000000000000D+00 0.000000000000D+00 0.634068467606D-03 0.000000000000D+00  6 21 -1 -13 13 -1 21 4 0.52908744D-02 0.18073788D-01 0.27908944D+04 0.68932815D+03 0.36761858D+04 0.13522966D+01  1  2  5  3  6  5       -1 -.842752795490D+02
0.571507078186D-03 0.000000000000D+00 -.000000000000D+00 0.634068467606D-03 0.000000000000D+00  6 21 -1 -13 13 -1 21 4 0.52908744D-02 0.18073788D-01 0.27908944D+04 0.68932815D+03 0.36761858D+04 0.13522966D+01  1  2  6  3  6  5       -1 0.987494793275D+02
0.421951343741D-03 0.000000000000D+00 0.000000000000D+00 0.634068467606D-03 0.199034828243D-02  6 21 -1 -13 13 -1 21 4 0.52908744D-02 0.18073788D-01 0.27889137D+04 0.59988451D+03 0.35419583D+04 0.13612450D+01  1  2 11  3  6  5       -1 0.746570437655D+02
  </mgrwgt>
  </event>
  <event npLO=' -1 ' npNLO=' 1 '>
  6     66 0.19695947E+02 0.19718994E+02 0.75467711E-02 0.15199703E+00
       21 -1    0    0  501  502 0.00000000E+00 0.00000000E+00 0.11112474E+03 0.11112474E+03 0.00000000E+00 0.0000E+00 0.9000E+01
       -1 -1    0    0    0  501 0.00000000E+00 0.00000000E+00 -.43038774E+02 0.43038774E+02 0.00000000E+00 0.0000E+00 0.9000E+01
       23  2    1    2    0    0 0.12822096E+02 0.14981074E+02 0.11142374E+02 0.93902320E+02 0.91129877E+02 0.0000E+00 0.0000E+00
      -11  1    3    3    0    0 0.11235467E+02 0.65640336E+01 -.39991917E+02 0.42055626E+02 0.00000000E+00 0.0000E+00 0.9000E+01
       11  1    3    3    0    0 0.15866292E+01 0.84170403E+01 0.51134291E+02 0.51846694E+02 0.00000000E+00 0.0000E+00 0.9000E+01
       -1  1    1    2    0  502 -.12822096E+02 -.14981074E+02 0.56943590E+02 0.60261192E+02 0.00000000E+00 0.0000E+00 0.9000E+01
#aMCatNLO 1  0  0  1  2 0.11120079D+02 0.00000000D+00  -5  6  0 0.00000000D+00 0.00000000D+00 0.00000000D+00 0.00000000D+00 0.00000000D+00
  <mgrwgt>
 0.2156354678D+03   38    4    0
 0.691568684990545D+02 0.000000000000000D+00 0.000000000000000D+00 0.691568684990545D+02
 0.691568684990545D+02 0.000000000000000D+00 0.000000000000000D+00 -.691568684990545D+02
 0.665612213547706D+02 0.112354671549172D+02 0.656403363621573D+01 -.652769019521620D+02
 0.326167235743555D+02 0.158662924622546D+01 0.841704027846109D+01 0.314719986227711D+02
 0.391357920689830D+02 -.128220964011426D+02 -.149810739146768D+02 0.338049033293910D+02
 0.000000000000000D+00 0.000000000000000D+00 -.000000000000000D+00 0.000000000000000D+00
 0.748385140979188D+02 0.000000000000000D+00 0.000000000000000D+00 0.748385140979188D+02
 0.727064726806993D+02 0.000000000000000D+00 0.000000000000000D+00 -.727064726806993D+02
 0.668951221693534D+02 0.100808726616502D+02 0.105952559176331D+02 -.652769019521620D+02
 0.331627074460093D+02 0.101754000834581D+01 0.104039934721871D+02 0.314719986227711D+02
 0.385292828923679D+02 -.134940140148103D+02 -.126350994004301D+02 0.338049033293910D+02
 0.895787427088758D+01 0.239560134481433D+01 -.836414998939009D+01 0.213204141721949D+01
 0.691568684990545D+02 0.000000000000000D+00 0.000000000000000D+00 0.691568684990545D+02
 0.691568684990545D+02 0.000000000000000D+00 0.000000000000000D+00 -.691568684990545D+02
 0.665612213547706D+02 0.112354671549172D+02 0.656403363621573D+01 -.652769019521620D+02
 0.326167235743555D+02 0.158662924622546D+01 0.841704027846109D+01 0.314719986227711D+02
 0.000000000000000D+00 0.000000000000000D+00 -.000000000000000D+00 0.000000000000000D+00
 0.391357920689830D+02 -.128220964011426D+02 -.149810739146768D+02 0.338049033293910D+02
 0.748385140979188D+02 0.000000000000000D+00 0.000000000000000D+00 0.748385140979188D+02
 0.727064726806993D+02 0.000000000000000D+00 0.000000000000000D+00 -.727064726806993D+02
 0.668951221693534D+02 0.100808726616502D+02 0.105952559176331D+02 -.652769019521620D+02
 0.331627074460093D+02 0.101754000834581D+01 0.104039934721871D+02 0.314719986227711D+02
 0.895787427088758D+01 0.239560134481433D+01 -.836414998939009D+01 0.213204141721949D+01
 0.385292828923679D+02 -.134940140148103D+02 -.126350994004301D+02 0.338049033293910D+02
0.441737737198D-03 0.000000000000D+00 0.000000000000D+00 0.593353195627D-02 0.000000000000D+00  6 21 -1 -11 11 -1 21 2 0.17096114D-01 0.66213498D-02 0.42635352D+03 0.38883873D+03 0.31898717D+04 0.13903873D+01  1  2  2  1  6  1       21 0.275929198859D+02
-.125935342315D-05 0.214462495630D-04 0.973150045230D-06 0.593353195627D-02 0.000000000000D+00  6 21 -1 -11 11 -1 21 4 0.17096114D-01 0.66213498D-02 0.42635352D+03 0.38883873D+03 0.31898717D+04 0.13903873D+01  1  2  3  1  6  1       21 -.154108581291D+00
0.311893596220D-04 0.000000000000D+00 0.000000000000D+00 0.593353195627D-02 0.000000000000D+00  6 21 -1 -11 11 -1 21 4 0.17096114D-01 0.66213498D-02 0.42635352D+03 0.38883873D+03 0.31898717D+04 0.13903873D+01  1  2 15  1  6  1       21 0.376626756084D+01
0.610678190964D-03 0.000000000000D+00 0.000000000000D+00 0.586255190447D-02 0.000000000000D+00  6 21 -1 -11 11 -1 21 4 0.19450241D-01 0.66213498D-02 0.68290484D+03 0.43893036D+03 0.32751472D+04 0.13820460D+01  1  2 12  1  6  1       21 0.576689743975D+02
0.610678190964D-03 0.000000000000D+00 0.000000000000D+00 0.586255190447D-02 0.000000000000D+00  6 21 -1 -11 11 -1 21 4 0.19450241D-01 0.66213498D-02 0.68290484D+03 0.43893036D+03 0.32751472D+04 0.13820460D+01  1  2 12  1  6  1       21 0.576689743975D+02
-.173357740504D-03 0.000000000000D+00 0.000000000000D+00 0.593353195627D-02 0.000000000000D+00  6 21 -1 -11 11 -1 21 4 0.17096114D-01 0.66213498D-02 0.42635352D+03 0.38883873D+03 0.31898717D+04 0.13903873D+01  1  2  4  1  6  1       21 -.209337941655D+02
-.219387333117D-02 0.000000000000D+00 -.946277200608D-03 0.593353195627D-02 0.000000000000D+00  6 21 -1 -11 11 -1 21 4 0.19405769D-01 0.66213498D-02 0.42635352D+03 0.38883873D+03 0.31898717D+04 0.13903873D+01  1  2  5  1  6  1       21 -.397446675206D+03
0.223230948535D-02 0.000000000000D+00 0.916564853871D-03 0.593353195627D-02 0.000000000000D+00  6 21 -1 -11 11 -1 21 4 0.17096114D-01 0.66213498D-02 0.42635352D+03 0.38883873D+03 0.31898717D+04 0.13903873D+01  1  2  6  1  6  1       21 0.492301503046D+03
0.208698398893D-04 0.000000000000D+00 0.000000000000D+00 0.586255190447D-02 0.000000000000D+00  6 -1 -1 -11 11 -1 -1 4 0.19450241D-01 0.66213498D-02 0.68290484D+03 0.43893036D+03 0.32751472D+04 0.13820460D+01  1  2 12  4  6  1       21 0.161235168782D+00
0.208698398893D-04 0.000000000000D+00 0.000000000000D+00 0.586255190447D-02 0.000000000000D+00  6 -1 -1 -11 11 -1 -1 4 0.19450241D-01 0.66213498D-02 0.68290484D+03 0.43893036D+03 0.32751472D+04 0.13820460D+01  1  2 12  4  6  1       21 0.161235168782D+00
-.529427462642D-04 0.000000000000D+00 -.316769093592D-04 0.593353195627D-02 0.000000000000D+00  6 -1 -1 -11 11 -1 -1 4 0.19405769D-01 0.66213498D-02 0.42635352D+03 0.38883873D+03 0.31898717D+04 0.13903873D+01  1  2  5  4  6  1       21 -.924974216004D+00
0.208698398893D-04 0.000000000000D+00 0.000000000000D+00 0.586255190447D-02 0.000000000000D+00  6 1 -1 -11 11 1 -1 4 0.19450241D-01 0.66213498D-02 0.68290484D+03 0.43893036D+03 0.32751472D+04 0.13820460D+01  3  4 12  5  5  1       21 0.222750668445D+00
0.208698398893D-04 0.000000000000D+00 0.000000000000D+00 0.586255190447D-02 0.000000000000D+00  6 1 -1 -11 11 1 -1 4 0.19450241D-01 0.66213498D-02 0.68290484D+03 0.43893036D+03 0.32751472D+04 0.13820460D+01  3  4 12  5  5  1       21 0.222750668445D+00
-.529427462642D-04 0.000000000000D+00 -.316769093592D-04 0.593353195627D-02 0.000000000000D+00  6 1 -1 -11 11 1 -1 4 0.19405769D-01 0.66213498D-02 0.42635352D+03 0.38883873D+03 0.31898717D+04 0.13903873D+01  3  4  5  5  5  1       21 -.127709099956D+01
0.208698398893D-04 0.000000000000D+00 0.000000000000D+00 0.586255190447D-02 0.000000000000D+00  6 -2 -1 -11 11 -1 -2 4 0.19450241D-01 0.66213498D-02 0.68290484D+03 0.43893036D+03 0.32751472D+04 0.13820460D+01  1  2 12  6  6  1       21 0.149486825157D+00
0.208698398893D-04 0.000000000000D+00 0.000000000000D+00 0.586255190447D-02 0.000000000000D+00  6 -4 -1 -11 11 -1 -4 4 0.19450241D-01 0.66213498D-02 0.68290484D+03 0.43893036D+03 0.32751472D+04 0.13820460D+01  1  2 12  6  6  1       21 0.760541547601D-01
0.208698398893D-04 0.000000000000D+00 0.000000000000D+00 0.586255190447D-02 0.000000000000D+00  6 -2 -1 -11 11 -1 -2 4 0.19450241D-01 0.66213498D-02 0.68290484D+03 0.43893036D+03 0.32751472D+04 0.13820460D+01  1  2 12  6  6  1       21 0.149486825157D+00
0.208698398893D-04 0.000000000000D+00 0.000000000000D+00 0.586255190447D-02 0.000000000000D+00  6 -4 -1 -11 11 -1 -4 4 0.19450241D-01 0.66213498D-02 0.68290484D+03 0.43893036D+03 0.32751472D+04 0.13820460D+01  1  2 12  6  6  1       21 0.760541547601D-01
-.529427462642D-04 0.000000000000D+00 -.316769093592D-04 0.593353195627D-02 0.000000000000D+00  6 -2 -1 -11 11 -1 -2 4 0.19405769D-01 0.66213498D-02 0.42635352D+03 0.38883873D+03 0.31898717D+04 0.13903873D+01  1  2  5  6  6  1       21 -.857687324230D+00
-.529427462642D-04 0.000000000000D+00 -.316769093592D-04 0.593353195627D-02 0.000000000000D+00  6 -4 -1 -11 11 -1 -4 4 0.19405769D-01 0.66213498D-02 0.42635352D+03 0.38883873D+03 0.31898717D+04 0.13903873D+01  1  2  5  6  6  1       21 -.436081401368D+00
0.208698398893D-04 0.000000000000D+00 0.000000000000D+00 0.586255190447D-02 0.000000000000D+00  6 2 -1 -11 11 2 -1 4 0.19450241D-01 0.66213498D-02 0.68290484D+03 0.43893036D+03 0.32751472D+04 0.13820460D+01  3  4 12  7  5  1       21 0.267876196357D+00
0.208698398893D-04 0.000000000000D+00 0.000000000000D+00 0.586255190447D-02 0.000000000000D+00  6 4 -1 -11 11 4 -1 4 0.19450241D-01 0.66213498D-02 0.68290484D+03 0.43893036D+03 0.32751472D+04 0.13820460D+01  3  4 12  7  5  1       21 0.758059649827D-01
0.208698398893D-04 0.000000000000D+00 0.000000000000D+00 0.586255190447D-02 0.000000000000D+00  6 2 -1 -11 11 2 -1 4 0.19450241D-01 0.66213498D-02 0.68290484D+03 0.43893036D+03 0.32751472D+04 0.13820460D+01  3  4 12  7  5  1       21 0.267876196357D+00
0.208698398893D-04 0.000000000000D+00 0.000000000000D+00 0.586255190447D-02 0.000000000000D+00  6 4 -1 -11 11 4 -1 4 0.19450241D-01 0.66213498D-02 0.68290484D+03 0.43893036D+03 0.32751472D+04 0.13820460D+01  3  4 12  7  5  1       21 0.758059649827D-01
-.529427462642D-04 0.000000000000D+00 -.316769093592D-04 0.593353195627D-02 0.000000000000D+00  6 2 -1 -11 11 2 -1 4 0.19405769D-01 0.66213498D-02 0.42635352D+03 0.38883873D+03 0.31898717D+04 0.13903873D+01  3  4  5  7  5  1       21 -.153533616596D+01
-.529427462642D-04 0.000000000000D+00 -.316769093592D-04 0.593353195627D-02 0.000000000000D+00  6 4 -1 -11 11 4 -1 4 0.19405769D-01 0.66213498D-02 0.42635352D+03 0.38883873D+03 0.31898717D+04 0.13903873D+01  3  4  5  7  5  1       21 -.434659519078D+00
0.208698398893D-04 0.000000000000D+00 0.000000000000D+00 0.586255190447D-02 0.000000000000D+00  6 -3 -1 -11 11 -1 -3 4 0.19450241D-01 0.66213498D-02 0.68290484D+03 0.43893036D+03 0.32751472D+04 0.13820460D+01  1  2 12  8  6  1       21 0.121608200087D+00
0.208698398893D-04 0.000000000000D+00 0.000000000000D+00 0.586255190447D-02 0.000000000000D+00  6 -5 -1 -11 11 -1 -5 4 0.19450241D-01 0.66213498D-02 0.68290484D+03 0.43893036D+03 0.32751472D+04 0.13820460D+01  1  2 12  8  6  1       21 0.482261297491D-01
0.208698398893D-04 0.000000000000D+00 0.000000000000D+00 0.586255190447D-02 0.000000000000D+00  6 -3 -1 -11 11 -1 -3 4 0.19450241D-01 0.66213498D-02 0.68290484D+03 0.43893036D+03 0.32751472D+04 0.13820460D+01  1  2 12  8  6  1       21 0.121608200087D+00
0.208698398893D-04 0.000000000000D+00 0.000000000000D+00 0.586255190447D-02 0.000000000000D+00  6 -5 -1 -11 11 -1 -5 4 0.19450241D-01 0.66213498D-02 0.68290484D+03 0.43893036D+03 0.32751472D+04 0.13820460D+01  1  2 12  8  6  1       21 0.482261297491D-01
-.529427462642D-04 0.000000000000D+00 -.316769093592D-04 0.593353195627D-02 0.000000000000D+00  6 -3 -1 -11 11 -1 -3 4 0.19405769D-01 0.66213498D-02 0.42635352D+03 0.38883873D+03 0.31898717D+04 0.13903873D+01  1  2  5  8  6  1       21 -.697803618114D+00
-.529427462642D-04 0.000000000000D+00 -.316769093592D-04 0.593353195627D-02 0.000000000000D+00  6 -5 -1 -11 11 -1 -5 4 0.19405769D-01 0.66213498D-02 0.42635352D+03 0.38883873D+03 0.31898717D+04 0.13903873D+01  1  2  5  8  6  1       21 -.276108484277D+00
0.208698398893D-04 0.000000000000D+00 0.000000000000D+00 0.586255190447D-02 0.000000000000D+00  6 3 -1 -11 11 3 -1 4 0.19450241D-01 0.66213498D-02 0.68290484D+03 0.43893036D+03 0.32751472D+04 0.13820460D+01  3  4 12  9  5  1       21 0.121880519114D+00
0.208698398893D-04 0.000000000000D+00 0.000000000000D+00 0.586255190447D-02 0.000000000000D+00  6 5 -1 -11 11 5 -1 4 0.19450241D-01 0.66213498D-02 0.68290484D+03 0.43893036D+03 0.32751472D+04 0.13820460D+01  3  4 12  9  5  1       21 0.481431848497D-01
0.208698398893D-04 0.000000000000D+00 0.000000000000D+00 0.586255190447D-02 0.000000000000D+00  6 3 -1 -11 11 3 -1 4 0.19450241D-01 0.66213498D-02 0.68290484D+03 0.43893036D+03 0.32751472D+04 0.13820460D+01  3  4 12  9  5  1       21 0.121880519114D+00
0.208698398893D-04 0.000000000000D+00 0.000000000000D+00 0.586255190447D-02 0.000000000000D+00  6 5 -1 -11 11 5 -1 4 0.19450241D-01 0.66213498D-02 0.68290484D+03 0.43893036D+03 0.32751472D+04 0.13820460D+01  3  4 12  9  5  1       21 0.481431848497D-01
-.529427462642D-04 0.000000000000D+00 -.316769093592D-04 0.593353195627D-02 0.000000000000D+00  6 3 -1 -11 11 3 -1 4 0.19405769D-01 0.66213498D-02 0.42635352D+03 0.38883873D+03 0.31898717D+04 0.13903873D+01  3  4  5  9  5  1       21 -.699351742473D+00
-.529427462642D-04 0.000000000000D+00 -.316769093592D-04 0.593353195627D-02 0.000000000000D+00  6 5 -1 -11 11 5 -1 4 0.19405769D-01 0.66213498D-02 0.42635352D+03 0.38883873D+03 0.31898717D+04 0.13903873D+01  3  4  5  9  5  1       21 -.275634045263D+00
  </mgrwgt>
  </event>
  <event npLO=' -1 ' npNLO=' 1 '>
  6     66 -.19695947E+02 0.83417790E+01 0.75467711E-02 0.16454663E+00
       21 -1    0    0  501  502 0.00000000E+00 0.00000000E+00 0.24233276E+02 0.24233276E+02 0.00000000E+00 0.0000E+00 0.9000E+01
       -1 -1    0    0    0  503 0.00000000E+00 0.00000000E+00 -.44267562E+03 0.44267562E+03 0.00000000E+00 0.0000E+00 0.9000E+01
      -11  1    1    2    0    0 -.26234569E+02 -.13420650E+02 -.35293292E+03 0.35416100E+03 0.00000000E+00 0.0000E+00 0.9000E+01
       11  1    1    2    0    0 0.15624783E+02 0.21279600E+02 0.54066304E+01 0.26947855E+02 0.00000000E+00 0.0000E+00 0.9000E+01
       -1  1    1    2    0  502 0.45652875E+00 -.14363604E+02 -.52161084E+00 0.14380321E+02 0.00000000E+00 0.0000E+00 0.9000E+01
       21  1    1    2  501  503 0.10153257E+02 0.65046549E+01 -.70394438E+02 0.71419718E+02 0.00000000E+00 0.0000E+00 0.9000E+01
#aMCatNLO 2  0  0  2  1 0.12829718D+02 0.00000000D+00  -5  6  0 0.00000000D+00 0.00000000D+00 0.00000000D+00 0.00000000D+00 0.00000000D+00
  <mgrwgt>
 -.6222777685D+03    2    2    0
 0.937135878566562D+02 0.000000000000000D+00 0.000000000000000D+00 0.937135878566562D+02
 0.937135878566562D+02 0.000000000000000D+00 0.000000000000000D+00 -.937135878566562D+02
 0.900382535021839D+02 -.213161513977359D+02 -.102696802223451D+02 -.868737155383785D+02
 0.684874538961720D+02 0.192844174182508D+02 0.236241337757225D+02 0.613232654819174D+02
 0.289014683149563D+02 0.203173397948513D+01 -.133544535533774D+02 0.255504500564612D+02
 0.000000000000000D+00 0.000000000000000D+00 0.000000000000000D+00 -.000000000000000D+00
 0.959368115943337D+02 0.000000000000000D+00 0.000000000000000D+00 0.959368115943337D+02
 0.111818188532311D+03 0.000000000000000D+00 0.000000000000000D+00 -.111818188532311D+03
 0.917355378411760D+02 -.262345687508843D+02 -.134206502831214D+02 -.868737155383785D+02
 0.667644973757575D+02 0.156247834343479D+02 0.212795996931694D+02 0.613232654819174D+02
 0.293146216925836D+02 0.456528746599448D+00 -.143636042968018D+02 0.255504500564612D+02
 0.199403432171281D+02 0.101532565699369D+02 0.650465488675380D+01 -.158813769379777D+02
-.223983265041D-01 0.000000000000D+00 0.000000000000D+00 0.166786273690D-04 0.000000000000D+00  6 21 -1 -11 11 -1 21 4 0.36417997D-02 0.69719612D-01 0.16931983D+04 0.20302070D+03 0.72903681D+04 0.14379687D+01  1  2 13  2  6  2       -1 -.987554480970D+03
0.822265135634D-02 0.000000000000D+00 0.000000000000D+00 0.168719627663D-04 0.114229741364D-05  6 21 -1 -11 11 -1 21 4 0.37281963D-02 0.68103941D-01 0.16931983D+04 0.20302070D+03 0.72903681D+04 0.14379687D+01  1  2  1  2  6  2       -1 0.365276712466D+03
  </mgrwgt>
  </event>
  <event npLO=' -1 ' npNLO=' 1 '>
  6     66 0.19695947E+02 0.57647314E+02 0.75467711E-02 0.12292882E+00
       21 -1    0    0  501  502 0.00000000E+00 0.00000000E+00 0.98423591E+02 0.98423591E+02 0.00000000E+00 0.0000E+00 0.9000E+01
       -3 -1    0    0    0  501 -.00000000E+00 -.00000000E+00 -.12468655E+03 0.12468655E+03 0.00000000E+00 0.0000E+00 0.9000E+01
       23  2    1    2    0    0 0.25294026E+02 -.65000410E+02 -.76025309E+02 0.13742973E+03 0.90786797E+02 0.0000E+00 0.0000E+00
      -11  1    3    3    0    0 0.83609639E+01 -.70776244E+02 -.89947889E+02 0.11475977E+03 0.00000000E+00 0.0000E+00 0.9000E+01
       11  1    3    3    0    0 0.16933063E+02 0.57758337E+01 0.13922580E+02 0.22669960E+02 0.00000000E+00 0.0000E+00 0.9000E+01
       -3  1    1    2    0  502 -.25294026E+02 0.65000410E+02 0.49762350E+02 0.85680410E+02 0.00000000E+00 0.0000E+00 0.9000E+01
#aMCatNLO 1  0  0  5  1 0.33500233D+01 0.00000000D+00  -5  6  0 0.00000000D+00 0.00000000D+00 0.00000000D+00 0.00000000D+00 0.00000000D+00
  <mgrwgt>
 0.3864265711D+02    8    2    0
 0.110779501899383D+03 0.000000000000000D+00 0.000000000000000D+00 0.110779501899383D+03
 0.110779501899383D+03 -.000000000000000D+00 -.000000000000000D+00 -.110779501899383D+03
 0.104901045494089D+03 0.836096385495260D+01 -.707762437486284D+02 -.769743265641459D+02
 0.244790149610803D+02 0.169330625683672D+02 0.577583374439027D+01 0.167072831447162D+02
 0.921789433435971D+02 -.252940264233198D+02 0.650004100042381D+02 0.602670434194296D+02
 0.000000000000000D+00 -.000000000000000D+00 0.000000000000000D+00 0.000000000000000D+00
 0.110779501899383D+03 0.000000000000000D+00 0.000000000000000D+00 0.110779501899383D+03
 0.110779501899383D+03 -.000000000000000D+00 -.000000000000000D+00 -.110779501899383D+03
 0.104788290150031D+03 0.832930691707652D+01 -.706948919738265D+02 -.768988988715526D+02
 0.244904182243696D+02 0.169256696206075D+02 0.579483208919613D+01 0.167248980193184D+02
 0.471212983627965D+02 -.118052662650948D+02 0.312294691115821D+02 0.332531608544908D+02
 0.451589970615688D+02 -.134497102725893D+02 0.336705907730483D+02 0.269208399977434D+02
0.316773397811D-03 0.000000000000D+00 0.000000000000D+00 0.149437218308D-02 0.000000000000D+00  6 21 -3 -11 11 -3 21 2 0.15142091D-01 0.19182546D-01 0.63129241D+04 0.48648411D+04 0.84855955D+04 0.12431879D+01  1  2  2  3  6  5       -3 0.325138413130D+01
-.201385785739D-04 0.153792641477D-04 0.697853093473D-06 0.149437218308D-02 0.000000000000D+00  6 21 -3 -11 11 -3 21 4 0.15142091D-01 0.19182546D-01 0.63129241D+04 0.48648411D+04 0.84855955D+04 0.12431879D+01  1  2  3  3  6  5       -3 -.379758669936D+00
0.219900254483D-04 0.000000000000D+00 0.000000000000D+00 0.149437218308D-02 0.000000000000D+00  6 21 -3 -11 11 -3 21 4 0.15142091D-01 0.19182546D-01 0.63129241D+04 0.48648411D+04 0.84855955D+04 0.12431879D+01  1  2 15  3  6  5       -3 0.348834064718D+00
0.366322965074D-03 0.000000000000D+00 0.000000000000D+00 0.149364974223D-02 0.000000000000D+00  6 21 -3 -11 11 -3 21 4 0.15142091D-01 0.19182546D-01 0.62978352D+04 0.48947425D+04 0.84992762D+04 0.12428874D+01  1  2 12  3  6  5       -3 0.580579768778D+01
-.131361367154D-01 0.000000000000D+00 0.000000000000D+00 0.149437218308D-02 0.000000000000D+00  6 21 -3 -11 11 -3 21 4 0.15142091D-01 0.19182546D-01 0.63129241D+04 0.48648411D+04 0.84855955D+04 0.12431879D+01  1  2  4  3  6  5       -3 -.208382294777D+03
-.111953308608D-01 0.000000000000D+00 0.000000000000D+00 0.149437218308D-02 0.000000000000D+00  6 21 -3 -11 11 -3 21 4 0.15142091D-01 0.19182546D-01 0.63129241D+04 0.48648411D+04 0.84855955D+04 0.12431879D+01  1  2  5  3  6  5       -3 -.177594736269D+03
0.177676009873D-01 0.000000000000D+00 -.000000000000D+00 0.149437218308D-02 0.000000000000D+00  6 21 -3 -11 11 -3 21 4 0.15142091D-01 0.19182546D-01 0.63129241D+04 0.48648411D+04 0.84855955D+04 0.12431879D+01  1  2  6  3  6  5       -3 0.281852537518D+03
0.843852357009D-02 0.000000000000D+00 0.000000000000D+00 0.149437218308D-02 0.274851615302D-03  6 21 -3 -11 11 -3 21 4 0.15142091D-01 0.19182546D-01 0.62978352D+04 0.48947425D+04 0.84992762D+04 0.12428874D+01  1  2 11  3  6  5       -3 0.133740893426D+03
  </mgrwgt>
  </event>
  <event npLO=' -1 ' npNLO=' 1 '>
  6     66 0.19695947E+02 0.32941666E+02 0.75467711E-02 0.13898252E+00
       21 -1    0    0  501  502 0.00000000E+00 0.00000000E+00 0.10297321E+03 0.10297321E+03 0.00000000E+00 0.0000E+00 0.9000E+01
       -3 -1    0    0    0  501 -.00000000E+00 -.00000000E+00 -.27011482E+03 0.27011482E+03 0.00000000E+00 0.0000E+00 0.9000E+01
       23  2    1    2    0    0 -.28470035E+02 -.16571375E+02 -.25825011E+03 0.27620712E+03 0.92261054E+02 0.0000E+00 0.0000E+00
      -13  1    3    3    0    0 -.58234051E+02 -.28982516E+02 -.18725482E+03 0.19823107E+03 0.00000000E+00 0.0000E+00 0.9000E+01
       13  1    3    3    0    0 0.29764016E+02 0.12411141E+02 -.70995287E+02 0.77976047E+02 0.00000000E+00 0.0000E+00 0.9000E+01
       -3  1    1    2    0  502 0.28470035E+02 0.16571375E+02 0.91108497E+02 0.96880914E+02 0.00000000E+00 0.0000E+00 0.9000E+01
#aMCatNLO 1  0  0  5  1 0.23363201D+02 0.00000000D+00  -5  6  0 0.00000000D+00 0.00000000D+00 0.00000000D+00 0.00000000D+00 0.00000000D+00
  <mgrwgt>
 0.5694066936D+02    6    2    0
 0.166777069517079D+03 0.000000000000000D+00 0.000000000000000D+00 0.166777069517079D+03
 0.166777069517079D+03 -.000000000000000D+00 -.000000000000000D+00 -.166777069517079D+03
 0.127893989201924D+03 -.582340508041635D+02 -.289825155251076D+02 -.110116672646593D+03
 0.516427811477129D+02 0.297640160080553D+02 0.124111406905391D+02 -.403366307777738D+02
 0.154017368684522D+03 0.284700347961082D+02 0.165713748345685D+02 0.150453303424366D+03
 0.000000000000000D+00 0.000000000000000D+00 0.000000000000000D+00 0.000000000000000D+00
 0.166777069517079D+03 0.000000000000000D+00 0.000000000000000D+00 0.166777069517079D+03
 0.166777069517079D+03 -.000000000000000D+00 -.000000000000000D+00 -.166777069517079D+03
 0.115779281258255D+03 -.558622641072045D+02 -.276019844978563D+02 -.975826822201311D+02
 0.484908177209820D+02 0.307386634827942D+02 0.129784476415539D+02 -.351859896458304D+02
 0.883928369585926D+02 -.352309166380623D+02 0.180975107713612D+02 0.790225046572855D+02
 0.808912030963291D+02 0.603545172624725D+02 -.347397391505878D+01 0.537461672086761D+02
0.279960041025D-01 0.000000000000D+00 0.000000000000D+00 0.119218734664D-01 0.000000000000D+00  6 21 -3 -13 13 -3 21 2 0.15842033D-01 0.41556127D-01 0.42404362D+04 0.10851533D+04 0.42841769D+04 0.13243167D+01  1  2  2  3  6  5       -3 0.701537898566D+02
0.288159839714D-02 0.135919854744D-02 0.616753117618D-04 0.119218734664D-01 0.000000000000D+00  6 21 -3 -13 13 -3 21 4 0.15842033D-01 0.41556127D-01 0.42404362D+04 0.10851533D+04 0.42841769D+04 0.13243167D+01  1  2  3  3  6  5       -3 0.452540461880D+01
0.243673491833D-02 0.000000000000D+00 0.000000000000D+00 0.119218734664D-01 0.000000000000D+00  6 21 -3 -13 13 -3 21 4 0.15842033D-01 0.41556127D-01 0.42404362D+04 0.10851533D+04 0.42841769D+04 0.13243167D+01  1  2 15  3  6  5       -3 0.107089553492D+02
-.148783755006D-01 0.000000000000D+00 0.000000000000D+00 0.119218734664D-01 0.000000000000D+00  6 21 -3 -13 13 -3 21 4 0.15842033D-01 0.41556127D-01 0.42404362D+04 0.10851533D+04 0.42841769D+04 0.13243167D+01  1  2  4  3  6  5       -3 -.653874402613D+02
-.132978924958D-01 0.000000000000D+00 0.000000000000D+00 0.119218734664D-01 0.000000000000D+00  6 21 -3 -13 13 -3 21 4 0.15842033D-01 0.41556127D-01 0.42404362D+04 0.10851533D+04 0.42841769D+04 0.13243167D+01  1  2  5  3  6  5       -3 -.584415382670D+02
0.217032772396D-01 0.000000000000D+00 -.000000000000D+00 0.119218734664D-01 0.000000000000D+00  6 21 -3 -13 13 -3 21 4 0.15842033D-01 0.41556127D-01 0.42404362D+04 0.10851533D+04 0.42841769D+04 0.13243167D+01  1  2  6  3  6  5       -3 0.953814980619D+02
  </mgrwgt>
  </event>
  <event npLO=' -1 ' npNLO=' 1 '>
  6     66 0.19695947E+02 0.10149708E+02 0.75467711E-02 0.17749062E+00
       21 -1    0    0  501  502 0.00000000E+00 0.00000000E+00 0.11657328E+02 0.11657328E+02 0.00000000E+00 0.0000E+00 0.9000E+01
       -3 -1    0    0    0  501 -.00000000E+00 -.00000000E+00 -.24999652E+03 0.24999652E+03 0.00000000E+00 0.0000E+00 0.9000E+01
       23  2    1    2    0    0 -.10114605E+02 -.84340128E+00 -.23165910E+03 0.24950312E+03 0.92102395E+02 0.0000E+00 0.0000E+00
      -13  1    3    3    0    0 0.12949795E+02 0.22304055E+02 -.13884746E+02 0.29290856E+02 0.00000000E+00 0.0000E+00 0.9000E+01
       13  1    3    3    0    0 -.23064401E+02 -.23147457E+02 -.21777436E+03 0.22021226E+03 0.00000000E+00 0.0000E+00 0.9000E+01
       -3  1    1    2    0  502 0.10114605E+02 0.84340128E+00 -.66800897E+01 0.12150727E+02 0.00000000E+00 0.0000E+00 0.9000E+01
#aMCatNLO 1  0  0  5  2 0.43960331D-01 0.00000000D+00  -5  6  0 0.00000000D+00 0.00000000D+00 0.00000000D+00 0.00000000D+00 0.00000000D+00
  <mgrwgt>
 0.2935562250D+02    7    2    0
 0.539841778405630D+02 0.000000000000000D+00 0.000000000000000D+00 0.539841778405630D+02
 0.539841778405630D+02 -.000000000000000D+00 -.000000000000000D+00 -.539841778405630D+02
 0.403339116777845D+02 0.129497954091785D+02 0.223040554562613D+02 0.310105843268997D+02
 0.529342358484100D+02 -.230644008483775D+02 -.231474567391115D+02 -.416444712401469D+02
 0.147002081549315D+02 0.101146054391990D+02 0.843401282850182D+00 0.106338869132471D+02
 0.000000000000000D+00 0.000000000000000D+00 0.000000000000000D+00 0.000000000000000D+00
 0.539841778405630D+02 0.000000000000000D+00 0.000000000000000D+00 0.539841778405630D+02
 0.539841778405630D+02 -.000000000000000D+00 -.000000000000000D+00 -.539841778405630D+02
 0.403353046386685D+02 0.129509803988535D+02 0.223041542660289D+02 0.310118301536671D+02
 0.529322152976687D+02 -.230628457241645D+02 -.231473270658619D+02 -.416428362762211D+02
 0.144881240319648D+02 0.996478953577863D+01 0.874791488416403D+00 0.104806224683950D+02
 0.212711712824015D+00 0.147075789532419D+00 -.316186885833891D-01 0.150383654158982D+00
0.469283004618D-04 0.000000000000D+00 0.000000000000D+00 0.307358305718D-02 0.000000000000D+00  6 21 -3 -13 13 -3 21 2 0.17934351D-02 0.38461003D-01 0.11770845D+04 0.10301657D+03 0.26424568D+04 0.14935239D+01  1  2  2  3  6  5       -3 0.529764333388D+01
0.477867909360D-05 0.227835649645D-05 0.103383238223D-06 0.307358305718D-02 0.000000000000D+00  6 21 -3 -13 13 -3 21 4 0.17934351D-02 0.38461003D-01 0.11770845D+04 0.10301657D+03 0.26424568D+04 0.14935239D+01  1  2  3  3  6  5       -3 -.173139389825D+00
0.328873217913D-05 0.000000000000D+00 0.000000000000D+00 0.307358305718D-02 0.000000000000D+00  6 21 -3 -13 13 -3 21 4 0.17934351D-02 0.38461003D-01 0.11770845D+04 0.10301657D+03 0.26424568D+04 0.14935239D+01  1  2 15  3  6  5       -3 0.828134289412D+00
-.444277498680D-01 0.000000000000D+00 0.000000000000D+00 0.307358305718D-02 0.000000000000D+00  6 21 -3 -13 13 -3 21 4 0.17934351D-02 0.38461003D-01 0.11770845D+04 0.10301657D+03 0.26424568D+04 0.14935239D+01  1  2  4  3  6  5       -3 -.111873333136D+05
-.421567614795D-01 0.000000000000D+00 0.000000000000D+00 0.307358305718D-02 0.000000000000D+00  6 21 -3 -13 13 -3 21 4 0.17934351D-02 0.38461003D-01 0.11770845D+04 0.10301657D+03 0.26424568D+04 0.14935239D+01  1  2  5  3  6  5       -3 -.106154766671D+05
0.431472752465D-01 0.000000000000D+00 -.000000000000D+00 0.307358305718D-02 0.000000000000D+00  6 21 -3 -13 13 -3 21 4 0.17934351D-02 0.38461003D-01 0.11770845D+04 0.10301657D+03 0.26424568D+04 0.14935239D+01  1  2  6  3  6  5       -3 0.108648975289D+05
0.435377042274D-01 0.000000000000D+00 0.000000000000D+00 0.307358305718D-02 0.190308987723D+02  6 21 -3 -13 13 -3 21 4 0.17934351D-02 0.38461003D-01 0.11771989D+04 0.10309628D+03 0.26426432D+04 0.14934567D+01  1  2 11  3  6  5       -3 0.109613154360D+05
  </mgrwgt>
  </event>
</LesHouchesEvents>
