<LesHouchesEvents version="3.0">
  <!--
  <scalesfunctionalform>
    muR  FxFx merging scale
    muF1 FxFx merging scale
    muF2 FxFx merging scale
    QES  H_T/2 := sum_i mT(i)/2, i=final state
  </scalesfunctionalform>
PYTHIA8   
  -->
  <header>
       87
  </header>
  <init>
   2212   2212 0.65000000D+04 0.65000000D+04 -1 -1 306000 306000 -4   1
 0.88606154D+03 0.36306669D+01 0.12166989D+02     66
  </init>
  <event npLO=' -1 ' npNLO=' 0 '>
  5     66 -.12166989E+02 0.94787681E+02 0.75467711E-02 0.11731598E+00
       -2 -1    0    0    0  501 0.00000000E+00 0.00000000E+00 0.12359487E+02 0.12359487E+02 0.00000000E+00 0.0000E+00 0.9000E+01
        2 -1    0    0  501    0 0.00000000E+00 0.00000000E+00 -.18173701E+03 0.18173701E+03 0.00000000E+00 0.0000E+00 0.9000E+01
       23  2    1    2    0    0 0.00000000E+00 0.00000000E+00 -.16937752E+03 0.19409649E+03 0.94787681E+02 0.0000E+00 0.0000E+00
      -11  1    3    3    0    0 0.19146066E+02 -.43577613E+01 0.36383365E+01 0.19969963E+02 0.00000000E+00 0.0000E+00 0.9000E+01
       11  1    3    3    0    0 -.19146066E+02 0.43577613E+01 -.17301586E+03 0.17412653E+03 0.00000000E+00 0.0000E+00 0.9000E+01
#aMCatNLO 1  0  0  0  0 0.00000000D+00 0.00000000D+00  -5  5  0 0.00000000D+00 0.00000000D+00 0.00000000D+00 0.00000000D+00 0.00000000D+00
  <mgrwgt>
 -.9509342791D+01    1    2    0
 0.473938405968847D+02 0.000000000000000D+00 0.000000000000000D+00 0.473938405968847D+02
 0.473938405968847D+02 0.000000000000000D+00 0.000000000000000D+00 -.473938405968847D+02
 0.473938405968847D+02 0.191460662235849D+02 -.435776132547080D+01 0.431348373233892D+02
 0.473938405968847D+02 -.191460662235849D+02 0.435776132547080D+01 -.431348373233892D+02
 0.000000000000000D+00 0.000000000000000D+00 -.000000000000000D+00 -.000000000000000D+00
 0.789955492626822D+02 0.000000000000000D+00 0.000000000000000D+00 0.789955492626822D+02
 0.118793280614091D+03 0.000000000000000D+00 0.000000000000000D+00 -.118793280614091D+03
 0.445120853740045D+02 -.108574126753382D+02 -.168170848389853D+01 0.431348373233892D+02
 0.730912857020561D+02 -.584794705319141D+02 0.786596344838505D+01 -.431348373233892D+02
 0.801854588007131D+02 0.693368832072523D+02 -.618425496448652D+01 -.397977313514092D+02
-.436842750066D-03 0.000000000000D+00 0.000000000000D+00 0.193783257917D+00 0.000000000000D+00  5 -2 2 -11 11 21 2 0.19014595D-02 0.27959540D-01 0.38556194D+03 0.89847045D+04 0.89847045D+04 0.12141812D+01  1  2 14  1  5  1       -2 -.950934279147D+01
  </mgrwgt>
  </event>
  <event npLO=' -1 ' npNLO=' 0 '>
  5     66 -.12166989E+02 0.72285136E+02 0.75467711E-02 0.11700155E+00
       -2 -1    0    0    0  501 0.00000000E+00 0.00000000E+00 0.12763272E+03 0.12763272E+03 0.00000000E+00 0.0000E+00 0.9000E+01
        2 -1    0    0  501    0 0.00000000E+00 0.00000000E+00 -.18239823E+02 0.18239823E+02 0.00000000E+00 0.0000E+00 0.9000E+01
       23  2    1    2    0    0 0.00000000E+00 0.00000000E+00 0.10939290E+03 0.14587254E+03 0.96498667E+02 0.0000E+00 0.0000E+00
      -11  1    3    3    0    0 -.10343965E+02 0.23367158E+02 0.11656310E+03 0.11933138E+03 0.00000000E+00 0.0000E+00 0.9000E+01
       11  1    3    3    0    0 0.10343965E+02 -.23367158E+02 -.71702010E+01 0.26541165E+02 0.00000000E+00 0.0000E+00 0.9000E+01
#aMCatNLO 1  0  0  2  1 0.49376572D+00 0.00000000D+00  -5  5  0 0.00000000D+00 0.00000000D+00 0.00000000D+00 0.00000000D+00 0.00000000D+00
  <mgrwgt>
 -.6847946364D+03    9    2    0
 0.482493336283966D+02 0.000000000000000D+00 0.000000000000000D+00 0.482493336283966D+02
 0.482493336283966D+02 0.000000000000000D+00 0.000000000000000D+00 -.482493336283966D+02
 0.482493336283966D+02 -.103439647524877D+02 0.233671578606382D+02 0.409264770325963D+02
 0.482493336283966D+02 0.103439647524877D+02 -.233671578606382D+02 -.409264770325963D+02
 0.000000000000000D+00 0.000000000000000D+00 -.000000000000000D+00 -.000000000000000D+00
 0.483649935238445D+02 0.000000000000000D+00 0.000000000000000D+00 0.483649935238445D+02
 0.486631937411294D+02 0.000000000000000D+00 0.000000000000000D+00 -.486631937411294D+02
 0.483453638614517D+02 -.105294088718292D+02 0.234825303876385D+02 0.409264770325963D+02
 0.481542900574389D+02 0.101588874598380D+02 -.232520135518339D+02 -.409264770325963D+02
 0.528533346083331D+00 0.370521411991195D+00 -.230516835804571D+00 -.298200217284867D+00
0.385943168390D-01 0.000000000000D+00 0.000000000000D+00 0.101237924113D+00 0.000000000000D+00  5 -2 2 -11 11 21 0 0.19635803D-01 0.28061265D-02 0.65302167D+03 0.93119928D+04 0.93119928D+04 0.12125540D+01  1  2  2  2  5  2        2 0.304781576778D+03
-.109103140196D-02 0.000000000000D+00 -.148212338779D-03 0.101237924113D+00 0.000000000000D+00  5 -2 2 -11 11 21 2 0.19635803D-01 0.28061265D-02 0.65302167D+03 0.93119928D+04 0.93119928D+04 0.12125540D+01  1  2  3  2  5  2        2 -.172410668580D+02
0.148358527205D-02 0.000000000000D+00 0.000000000000D+00 0.101237924113D+00 0.000000000000D+00  5 -2 2 -11 11 21 2 0.19635803D-01 0.28061265D-02 0.65302167D+03 0.93119928D+04 0.93119928D+04 0.12125540D+01  1  2 15  2  5  2        2 0.172258248890D+02
-.144462942306D+01 0.000000000000D+00 0.000000000000D+00 0.101237924113D+00 0.000000000000D+00  5 -2 2 -11 11 21 2 0.19635803D-01 0.28061265D-02 0.65302167D+03 0.93119928D+04 0.93119928D+04 0.12125540D+01  1  2  4  2  5  2        2 -.167735107243D+05
-.530927241761D+01 0.000000000000D+00 -.567457442200D+00 0.101237924113D+00 0.000000000000D+00  5 -2 2 -11 11 21 2 0.19635803D-01 0.28368964D-02 0.65302167D+03 0.93119928D+04 0.93119928D+04 0.12125540D+01  1  2  5  2  5  2        2 -.780154403768D+05
0.531517852010D+01 0.000000000000D+00 0.567423699756D+00 0.101237924113D+00 0.000000000000D+00  5 -2 2 -11 11 21 2 0.19635803D-01 0.28061265D-02 0.65302167D+03 0.93119928D+04 0.93119928D+04 0.12125540D+01  1  2  6  2  5  2        2 0.792223683452D+05
0.144469380552D+01 0.000000000000D+00 0.000000000000D+00 0.101237924113D+00 0.416908580842D+01  5 -2 2 -11 11 21 2 0.19682873D-01 0.28301962D-02 0.66424496D+03 0.93121832D+04 0.93121832D+04 0.12125530D+01  1  2 11  2  5  2        2 0.165210569047D+05
-.106559361168D-01 0.000000000000D+00 -.114157949499D-02 0.101237924113D+00 0.000000000000D+00  5 -2 21 -11 11 -2 2 0.19635803D-01 0.28368964D-02 0.65302167D+03 0.93119928D+04 0.93119928D+04 0.12125540D+01  1  2  5  4  5  2        2 -.240427853790D+04
0.262107750956D-02 0.000000000000D+00 0.000000000000D+00 0.101237924113D+00 0.658634374747D-02  5 -2 21 -11 11 -2 2 0.19682873D-01 0.28301962D-02 0.66424496D+03 0.93121832D+04 0.93121832D+04 0.12125530D+01  1  2 11  4  5  2        2 0.460243417897D+03
  </mgrwgt>
  </event>
  <event npLO=' -1 ' npNLO=' 0 '>
  5     66 -.12166989E+02 0.85207582E+02 0.75467711E-02 0.11791108E+00
       -2 -1    0    0    0  501 0.00000000E+00 0.00000000E+00 0.35395876E+01 0.35395876E+01 0.00000000E+00 0.0000E+00 0.9000E+01
        2 -1    0    0  501    0 0.00000000E+00 0.00000000E+00 -.59333391E+03 0.59333391E+03 0.00000000E+00 0.0000E+00 0.9000E+01
       23  2    1    2    0    0 0.00000000E+00 0.00000000E+00 -.58979432E+03 0.59687350E+03 0.91654947E+02 0.0000E+00 0.0000E+00
      -13  1    3    3    0    0 -.12653200E+02 -.16619129E+02 -.29262606E+02 0.35952733E+02 0.00000000E+00 0.0000E+00 0.9000E+01
       13  1    3    3    0    0 0.12653200E+02 0.16619129E+02 -.56053172E+03 0.56092077E+03 0.00000000E+00 0.0000E+00 0.9000E+01
#aMCatNLO 1  0  0  1  1 0.55572341D-01 0.00000000D+00  -5  5  0 0.00000000D+00 0.00000000D+00 0.00000000D+00 0.00000000D+00 0.00000000D+00
  <mgrwgt>
 -.8597959445D+03    9    2    0
 0.458274736998288D+02 0.000000000000000D+00 0.000000000000000D+00 0.458274736998288D+02
 0.458274736998288D+02 0.000000000000000D+00 0.000000000000000D+00 -.458274736998288D+02
 0.458274736998288D+02 -.126531995690755D+02 -.166191291188185D+02 0.407904208571778D+02
 0.458274736998288D+02 0.126531995690755D+02 0.166191291188185D+02 -.407904208571778D+02
 0.000000000000000D+00 0.000000000000000D+00 -.000000000000000D+00 0.000000000000000D+00
 0.459444249760286D+02 0.000000000000000D+00 0.000000000000000D+00 0.459444249760286D+02
 0.458337472857148D+02 0.000000000000000D+00 0.000000000000000D+00 -.458337472857148D+02
 0.458261557164434D+02 -.126728492310453D+02 -.166005122333386D+02 0.407904208571778D+02
 0.458288076718498D+02 0.126335493385519D+02 0.166377465429694D+02 -.407904208571778D+02
 0.123208873450205D+00 0.392998924934486D-01 -.372343096308479D-01 0.110677690313749D+00
0.893392757983D-02 0.000000000000D+00 0.000000000000D+00 0.122217674587D+01 0.000000000000D+00  5 -2 2 -13 13 21 0 0.54455194D-03 0.91282140D-01 0.43629891D+03 0.84006294D+04 0.84006294D+04 0.12172569D+01  1  2  2  1  5  1       -2 0.206987411525D+03
-.123777208404D-03 0.000000000000D+00 -.343086342637D-04 0.122217674587D+01 0.000000000000D+00  5 -2 2 -13 13 21 2 0.54455194D-03 0.91282140D-01 0.43629891D+03 0.84006294D+04 0.84006294D+04 0.12172569D+01  1  2  3  1  5  1       -2 -.773279781415D+01
0.370531673545D-03 0.000000000000D+00 0.000000000000D+00 0.122217674587D+01 0.000000000000D+00  5 -2 2 -13 13 21 2 0.54455194D-03 0.91282140D-01 0.43629891D+03 0.84006294D+04 0.84006294D+04 0.12172569D+01  1  2 15  1  5  1       -2 0.127201239895D+02
-.397528973094D+01 0.000000000000D+00 0.000000000000D+00 0.122217674587D+01 0.000000000000D+00  5 -2 2 -13 13 21 2 0.54455194D-03 0.91282140D-01 0.43629891D+03 0.84006294D+04 0.84006294D+04 0.12172569D+01  1  2  4  1  5  1       -2 -.136469246442D+06
-.754800219710D+01 0.000000000000D+00 -.389373748092D+00 0.122217674587D+01 0.000000000000D+00  5 -2 2 -13 13 21 2 0.54601623D-03 0.91282140D-01 0.43629891D+03 0.84006294D+04 0.84006294D+04 0.12172569D+01  1  2  5  1  5  1       -2 -.297567384767D+06
0.754902199666D+01 0.000000000000D+00 0.389372344162D+00 0.122217674587D+01 0.000000000000D+00  5 -2 2 -13 13 21 2 0.54455194D-03 0.91282140D-01 0.43629891D+03 0.84006294D+04 0.84006294D+04 0.12172569D+01  1  2  6  1  5  1       -2 0.298689048766D+06
0.397530233726D+01 0.000000000000D+00 0.000000000000D+00 0.122217674587D+01 0.329534781845D+04  5 -2 2 -13 13 21 2 0.54594163D-03 0.91294636D-01 0.43743118D+03 0.84006323D+04 0.84006323D+04 0.12172569D+01  1  2 11  1  5  1       -2 0.135977807214D+06
-.378416581488D-02 0.000000000000D+00 -.195265370167D-03 0.122217674587D+01 0.000000000000D+00  5 21 2 -13 13 2 2 0.54601623D-03 0.91282140D-01 0.43629891D+03 0.84006294D+04 0.84006294D+04 0.12172569D+01  1  2  5  3  5  1       -2 -.303564673275D+04
0.191614103478D-02 0.000000000000D+00 0.000000000000D+00 0.122217674587D+01 0.156886810381D+01  5 21 2 -13 13 2 2 0.54594163D-03 0.91294636D-01 0.43743118D+03 0.84006323D+04 0.84006323D+04 0.12172569D+01  1  2 11  3  5  1       -2 0.133365127940D+04
  </mgrwgt>
  </event>
  <event npLO=' -1 ' npNLO=' 0 '>
  5     66 0.12166989E+02 0.49755728E+02 0.75467711E-02 0.11669938E+00
       -2 -1    0    0    0  501 0.00000000E+00 0.00000000E+00 0.67831443E+00 0.67831443E+00 0.00000000E+00 0.0000E+00 0.9000E+01
        2 -1    0    0  501    0 0.00000000E+00 0.00000000E+00 -.32224832E+04 0.32224832E+04 0.00000000E+00 0.0000E+00 0.9000E+01
       23  2    1    2    0    0 0.00000000E+00 0.00000000E+00 -.32218049E+04 0.32231616E+04 0.93506297E+02 0.0000E+00 0.0000E+00
      -11  1    3    3    0    0 0.39755997E+02 -.15788214E+02 -.22613266E+04 0.22617311E+04 0.00000000E+00 0.0000E+00 0.9000E+01
       11  1    3    3    0    0 -.39755997E+02 0.15788214E+02 -.96047835E+03 0.96143043E+03 0.00000000E+00 0.0000E+00 0.9000E+01
#aMCatNLO 1  0  0  1  2 0.38986840D+02 0.00000000D+00  -5  5  0 0.00000000D+00 0.00000000D+00 0.00000000D+00 0.00000000D+00 0.00000000D+00
  <mgrwgt>
 0.2005870667D+03    8    2    0
 0.467531485097786D+02 0.000000000000000D+00 0.000000000000000D+00 0.467531485097786D+02
 0.467531485097786D+02 0.000000000000000D+00 0.000000000000000D+00 -.467531485097786D+02
 0.467531485097786D+02 0.397559972455027D+02 -.157882141878225D+02 -.188692838060280D+02
 0.467531485097786D+02 -.397559972455027D+02 0.157882141878225D+02 0.188692838060280D+02
 0.000000000000000D+00 0.000000000000000D+00 0.000000000000000D+00 0.000000000000000D+00
 0.680719921824024D+02 0.000000000000000D+00 0.000000000000000D+00 0.680719921824024D+02
 0.609001671976962D+02 0.000000000000000D+00 0.000000000000000D+00 -.609001671976962D+02
 0.526648547095406D+02 0.379878437070517D+02 -.312163543789662D+02 -.188692838060280D+02
 0.455183909056054D+02 -.413970506124238D+02 0.146909491711332D+01 0.188692838060280D+02
 0.307889137649526D+02 0.340920690537213D+01 0.297472594618529D+02 0.717182498470622D+01
0.684606165328D-01 0.000000000000D+00 0.000000000000D+00 0.141818913977D+00 0.000000000000D+00  5 -2 2 -11 11 21 0 0.10435607D-03 0.49576665D+00 0.18298070D+04 0.87434276D+04 0.87434276D+04 0.12154238D+01  1  2  2  1  5  1       -2 0.476629296609D+03
-.376682151464D-02 0.000000000000D+00 -.262906793580D-03 0.141818913977D+00 0.000000000000D+00  5 -2 2 -11 11 21 2 0.10435607D-03 0.49576665D+00 0.18298070D+04 0.87434276D+04 0.87434276D+04 0.12154238D+01  1  2  3  1  5  1       -2 -.429701799448D+02
0.358095465060D-02 0.000000000000D+00 0.000000000000D+00 0.141818913977D+00 0.000000000000D+00  5 -2 2 -11 11 21 2 0.10435607D-03 0.49576665D+00 0.18298070D+04 0.87434276D+04 0.87434276D+04 0.12154238D+01  1  2 15  1  5  1       -2 0.368293662119D+02
0.157516891224D-01 0.000000000000D+00 0.000000000000D+00 0.141818913977D+00 0.000000000000D+00  5 -2 2 -11 11 21 2 0.19791692D-03 0.49576665D+00 0.36320839D+04 0.96399497D+04 0.96399497D+04 0.12109862D+01  1  2 12  1  5  1       -2 0.687551771255D+02
-.178902652235D-01 0.000000000000D+00 0.000000000000D+00 0.141818913977D+00 0.000000000000D+00  5 -2 2 -11 11 21 2 0.10435607D-03 0.49576665D+00 0.18298070D+04 0.87434276D+04 0.87434276D+04 0.12154238D+01  1  2  4  1  5  1       -2 -.183997619024D+03
-.476506372332D-02 0.000000000000D+00 -.193264816529D-01 0.141818913977D+00 0.000000000000D+00  5 -2 2 -11 11 21 2 0.25166418D-03 0.49576665D+00 0.18298070D+04 0.87434276D+04 0.87434276D+04 0.12154238D+01  1  2  5  1  5  1       -2 -.111350307213D+03
0.109570475788D-02 0.000000000000D+00 0.000000000000D+00 0.141818913977D+00 0.000000000000D+00  5 21 2 -11 11 2 2 0.19791692D-03 0.49576665D+00 0.36320839D+04 0.96399497D+04 0.96399497D+04 0.12109862D+01  1  2 12  3  5  1       -2 0.105615025813D+03
0.753397030978D-03 0.000000000000D+00 -.186260794477D-02 0.141818913977D+00 0.000000000000D+00  5 21 2 -11 11 2 2 0.25166418D-03 0.49576665D+00 0.18298070D+04 0.87434276D+04 0.87434276D+04 0.12154238D+01  1  2  5  3  5  1       -2 -.148923692841D+03
  </mgrwgt>
  </event>
  <event npLO=' -1 ' npNLO=' 0 '>
  4     66 0.12166989E+02 0.82971706E+02 0.75467711E-02 0.11074016E+00
       -2 -1    0    0    0  501 0.00000000E+00 0.00000000E+00 0.36812160E+01 0.36812160E+01 0.00000000E+00 0.0000E+00 0.9000E+01
        2 -1    0    0  501    0 0.00000000E+00 0.00000000E+00 -.13409434E+04 0.13409434E+04 0.00000000E+00 0.0000E+00 0.9000E+01
      -11  1    1    2    0    0 -.43393542E+00 0.58682305E+02 -.29894977E+03 0.30465516E+03 0.00000000E+00 0.0000E+00 0.9000E+01
       11  1    1    2    0    0 0.43393542E+00 -.58682305E+02 -.10383124E+04 0.10399694E+04 0.00000000E+00 0.0000E+00 0.9000E+01
#aMCatNLO 1  0  0  1  2 0.15910294D+02 0.00000000D+00  -5  5  0 0.00000000D+00 0.00000000D+00 0.00000000D+00 0.00000000D+00 0.00000000D+00
  <mgrwgt>
 0.7067259386D+03    6    2    0
 0.702588234383480D+02 0.000000000000000D+00 0.000000000000000D+00 0.702588234383480D+02
 0.702588234383480D+02 0.000000000000000D+00 0.000000000000000D+00 -.702588234383480D+02
 0.702588234383480D+02 -.433935416397097D+00 0.586823053332978D+02 0.386329006387686D+02
 0.702588234383480D+02 0.433935416397097D+00 -.586823053332978D+02 -.386329006387686D+02
 0.000000000000000D+00 0.000000000000000D+00 -.000000000000000D+00 -.000000000000000D+00
 0.738110060439966D+02 0.000000000000000D+00 0.000000000000000D+00 0.738110060439966D+02
 0.769607766878556D+02 0.000000000000000D+00 0.000000000000000D+00 -.769607766878556D+02
 0.716923972701087D+02 -.494431344341659D+01 0.601901368925456D+02 0.386329006387686D+02
 0.691410455907618D+02 -.399537560396832D+01 -.572015746933775D+02 -.386329006387686D+02
 0.993833987098173D+01 0.893968904738491D+01 -.298856219916803D+01 -.314977064385892D+01
0.659489573156D-01 0.000000000000D+00 0.000000000000D+00 0.665686541546D-02 0.000000000000D+00  5 -2 2 -11 11 21 0 0.56634093D-03 0.20629898D+00 0.34438013D+04 0.19745209D+05 0.19745209D+05 0.11798491D+01  1  2  2  1  5  1       -2 0.532740036513D+03
-.351946659925D-02 0.000000000000D+00 -.253261360851D-03 0.665686541546D-02 0.000000000000D+00  5 -2 2 -11 11 21 2 0.56634093D-03 0.20629898D+00 0.34438013D+04 0.19745209D+05 0.19745209D+05 0.11798491D+01  1  2  3  1  5  1       -2 -.445499233881D+02
0.327936172128D-02 0.000000000000D+00 0.000000000000D+00 0.665686541546D-02 0.000000000000D+00  5 -2 2 -11 11 21 2 0.56634093D-03 0.20629898D+00 0.34438013D+04 0.19745209D+05 0.19745209D+05 0.11798491D+01  1  2 15  1  5  1       -2 0.368764987930D+02
0.424849503129D-01 0.000000000000D+00 0.000000000000D+00 0.665686541546D-02 0.000000000000D+00  5 -2 2 -11 11 21 2 0.65172858D-03 0.20629898D+00 0.40424045D+04 0.19834059D+05 0.19834059D+05 0.11796618D+01  1  2 12  1  5  1       -2 0.393756846328D+03
-.341129770500D-01 0.000000000000D+00 0.000000000000D+00 0.665686541546D-02 0.000000000000D+00  5 -2 2 -11 11 21 2 0.56634093D-03 0.20629898D+00 0.34438013D+04 0.19745209D+05 0.19745209D+05 0.11798491D+01  1  2  4  1  5  1       -2 -.383601219970D+03
0.918479087973D-03 0.000000000000D+00 0.000000000000D+00 0.665686541546D-02 0.000000000000D+00  5 21 2 -11 11 2 2 0.65172858D-03 0.20629898D+00 0.40424045D+04 0.19834059D+05 0.19834059D+05 0.11796618D+01  1  2 12  3  5  1       -2 0.171503700364D+03
  </mgrwgt>
  </event>
  <event npLO=' -1 ' npNLO=' 0 '>
  5     66 0.12166989E+02 0.39774196E+02 0.75467711E-02 0.11766313E+00
       -2 -1    0    0    0  501 0.00000000E+00 0.00000000E+00 0.27844154E+02 0.27844154E+02 0.00000000E+00 0.0000E+00 0.9000E+01
        2 -1    0    0  501    0 0.00000000E+00 0.00000000E+00 -.72815011E+02 0.72815011E+02 0.00000000E+00 0.0000E+00 0.9000E+01
       23  2    1    2    0    0 0.00000000E+00 0.00000000E+00 -.44970857E+02 0.10065916E+03 0.90054925E+02 0.0000E+00 0.0000E+00
      -11  1    3    3    0    0 -.38173577E+02 -.23782135E+02 -.20072424E+02 0.49251540E+02 0.00000000E+00 0.0000E+00 0.9000E+01
       11  1    3    3    0    0 0.38173577E+02 0.23782135E+02 -.24898433E+02 0.51407625E+02 0.00000000E+00 0.0000E+00 0.9000E+01
#aMCatNLO 1  0  0  2  1 0.35053497D+02 0.00000000D+00  -5  5  0 0.00000000D+00 0.00000000D+00 0.00000000D+00 0.00000000D+00 0.00000000D+00
  <mgrwgt>
 0.3209124206D+03    6    2    0
 0.450274625314615D+02 0.000000000000000D+00 0.000000000000000D+00 0.450274625314615D+02
 0.450274625314615D+02 0.000000000000000D+00 0.000000000000000D+00 -.450274625314615D+02
 0.450274625314615D+02 -.381735772461883D+02 -.237821354667237D+02 0.215879941029030D+01
 0.450274625314615D+02 0.381735772461883D+02 0.237821354667237D+02 -.215879941029030D+01
 0.000000000000000D+00 0.000000000000000D+00 0.000000000000000D+00 0.000000000000000D+00
 0.601715295979259D+02 0.000000000000000D+00 0.000000000000000D+00 0.601715295979259D+02
 0.561175614061523D+02 0.000000000000000D+00 0.000000000000000D+00 -.561175614061523D+02
 0.579179880204659D+02 -.485755359002209D+02 -.314682416644355D+02 0.215879941029030D+01
 0.350254143653412D+02 0.300847621392315D+02 0.178052330396387D+02 -.215879941029030D+01
 0.233456886182712D+02 0.184907737609894D+02 0.136630086247968D+02 0.405396819177358D+01
0.272732291811D-01 0.000000000000D+00 0.000000000000D+00 0.334937684940D+00 0.000000000000D+00  5 -2 2 -11 11 21 0 0.42837160D-02 0.11202309D-01 0.20228120D+04 0.81098895D+04 0.81098895D+04 0.12188786D+01  1  2  2  2  5  2        2 0.360178238969D+03
-.151517695988D-02 0.000000000000D+00 -.104736381261D-03 0.334937684940D+00 0.000000000000D+00  5 -2 2 -11 11 21 2 0.42837160D-02 0.11202309D-01 0.20228120D+04 0.81098895D+04 0.81098895D+04 0.12188786D+01  1  2  3  2  5  2        2 -.325814446509D+02
0.145229957080D-02 0.000000000000D+00 0.000000000000D+00 0.334937684940D+00 0.000000000000D+00  5 -2 2 -11 11 21 2 0.42837160D-02 0.11202309D-01 0.20228120D+04 0.81098895D+04 0.81098895D+04 0.12188786D+01  1  2 15  2  5  2        2 0.284943002861D+02
0.898576857123D-02 0.000000000000D+00 0.000000000000D+00 0.334937684940D+00 0.000000000000D+00  5 -2 2 -11 11 21 2 0.42837160D-02 0.18657028D-01 0.33540066D+04 0.86384760D+04 0.86384760D+04 0.12159764D+01  1  2 12  2  5  2        2 0.966738875836D+02
-.881863302778D-02 0.000000000000D+00 0.000000000000D+00 0.334937684940D+00 0.000000000000D+00  5 -2 2 -11 11 21 2 0.42837160D-02 0.11202309D-01 0.20228120D+04 0.81098895D+04 0.81098895D+04 0.12188786D+01  1  2  4  2  5  2        2 -.173022689436D+03
0.514776446600D-03 0.000000000000D+00 0.000000000000D+00 0.334937684940D+00 0.000000000000D+00  5 -2 21 -11 11 -2 2 0.42837160D-02 0.18657028D-01 0.33540066D+04 0.86384760D+04 0.86384760D+04 0.12159764D+01  1  2 12  4  5  2        2 0.411701278303D+02
  </mgrwgt>
  </event>
  <event npLO=' -1 ' npNLO=' 0 '>
  5     66 0.12166989E+02 0.46557584E+02 0.75467711E-02 0.11796935E+00
       -2 -1    0    0    0  501 0.00000000E+00 0.00000000E+00 0.22277783E+02 0.22277783E+02 0.00000000E+00 0.0000E+00 0.9000E+01
        2 -1    0    0  501    0 0.00000000E+00 0.00000000E+00 -.93311492E+02 0.93311492E+02 0.00000000E+00 0.0000E+00 0.9000E+01
       23  2    1    2    0    0 0.00000000E+00 0.00000000E+00 -.71033709E+02 0.11558927E+03 0.91187129E+02 0.0000E+00 0.0000E+00
      -11  1    3    3    0    0 -.25747343E+02 -.37549698E+02 -.32446305E+02 0.55907676E+02 0.00000000E+00 0.0000E+00 0.9000E+01
       11  1    3    3    0    0 0.25747343E+02 0.37549698E+02 -.38587404E+02 0.59681599E+02 0.00000000E+00 0.0000E+00 0.9000E+01
#aMCatNLO 1  0  0  2  1 0.59442957D+01 0.00000000D+00  -5  5  0 0.00000000D+00 0.00000000D+00 0.00000000D+00 0.00000000D+00 0.00000000D+00
  <mgrwgt>
 0.2946746368D+03   11    2    0
 0.455935646252855D+02 0.000000000000000D+00 0.000000000000000D+00 0.455935646252855D+02
 0.455935646252855D+02 0.000000000000000D+00 0.000000000000000D+00 -.455935646252855D+02
 0.455935646252855D+02 -.257473433237168D+02 -.375496976981707D+02 0.242232322094533D+01
 0.455935646252855D+02 0.257473433237168D+02 0.375496976981707D+02 -.242232322094533D+01
 0.000000000000000D+00 0.000000000000000D+00 -.000000000000000D+00 -.000000000000000D+00
 0.466787110176054D+02 0.000000000000000D+00 0.000000000000000D+00 0.466787110176054D+02
 0.533592854225094D+02 0.000000000000000D+00 0.000000000000000D+00 -.533592854225094D+02
 0.464996619749927D+02 -.284204127215810D+02 -.367237124313004D+02 0.242232322094533D+01
 0.448559421392650D+02 0.231219840273850D+02 0.383609404218889D+02 -.242232322094533D+01
 0.868239232585713D+01 0.529842869419595D+01 -.163722799058846D+01 -.668057440490392D+01
0.216956400587D-01 0.000000000000D+00 0.000000000000D+00 0.659014536758D+00 0.000000000000D+00  5 -2 2 -11 11 21 0 0.34273512D-02 0.14355614D-01 0.20729055D+04 0.83150925D+04 0.83150925D+04 0.12177274D+01  1  2  2  2  5  2        2 0.294100385124D+03
-.120531040932D-02 0.000000000000D+00 -.833169704187D-04 0.659014536758D+00 0.000000000000D+00  5 -2 2 -11 11 21 2 0.34273512D-02 0.14355614D-01 0.20729055D+04 0.83150925D+04 0.83150925D+04 0.12177274D+01  1  2  3  2  5  2        2 -.265547244710D+02
0.120214973019D-02 0.000000000000D+00 0.000000000000D+00 0.659014536758D+00 0.000000000000D+00  5 -2 2 -11 11 21 2 0.34273512D-02 0.14355614D-01 0.20729055D+04 0.83150925D+04 0.83150925D+04 0.12177274D+01  1  2 15  2  5  2        2 0.241647242111D+02
0.627800259908D-01 0.000000000000D+00 0.000000000000D+00 0.659014536758D+00 0.000000000000D+00  5 -2 2 -11 11 21 2 0.34273512D-02 0.17200598D-01 0.23412355D+04 0.83458464D+04 0.83458464D+04 0.12175576D+01  1  2 12  2  5  2        2 0.102208871161D+04
-.877775254100D-01 0.000000000000D+00 0.000000000000D+00 0.659014536758D+00 0.000000000000D+00  5 -2 2 -11 11 21 2 0.34273512D-02 0.14355614D-01 0.20729055D+04 0.83150925D+04 0.83150925D+04 0.12177274D+01  1  2  4  2  5  2        2 -.176443885499D+04
-.140280881250D+00 0.000000000000D+00 -.212807963093D-01 0.659014536758D+00 0.000000000000D+00  5 -2 2 -11 11 21 2 0.34273512D-02 0.17156390D-01 0.20729055D+04 0.83150925D+04 0.83150925D+04 0.12177274D+01  1  2  5  2  5  2        2 -.277332389593D+04
0.142143696977D+00 0.000000000000D+00 0.209472123193D-01 0.659014536758D+00 0.000000000000D+00  5 -2 2 -11 11 21 2 0.34273512D-02 0.14355614D-01 0.20729055D+04 0.83150925D+04 0.83150925D+04 0.12177274D+01  1  2  6  2  5  2        2 0.344217813631D+04
0.209557619469D-01 0.000000000000D+00 0.000000000000D+00 0.659014536758D+00 0.171787006551D+00  5 -2 2 -11 11 21 2 0.35089236D-02 0.16800733D-01 0.23412355D+04 0.83458464D+04 0.83458464D+04 0.12175576D+01  1  2 11  2  5  2        2 0.338937131238D+03
0.166152760403D-02 0.000000000000D+00 0.000000000000D+00 0.659014536758D+00 0.000000000000D+00  5 -2 21 -11 11 -2 2 0.34273512D-02 0.17200598D-01 0.23412355D+04 0.83458464D+04 0.83458464D+04 0.12175576D+01  1  2 12  4  5  2        2 0.211466854656D+03
-.347060582451D-02 0.000000000000D+00 -.556929055224D-03 0.659014536758D+00 0.000000000000D+00  5 -2 21 -11 11 -2 2 0.34273512D-02 0.17156390D-01 0.20729055D+04 0.83150925D+04 0.83150925D+04 0.12177274D+01  1  2  5  4  5  2        2 -.542645740813D+03
0.535797086192D-03 0.000000000000D+00 0.000000000000D+00 0.659014536758D+00 0.415348492689D-02  5 -2 21 -11 11 -2 2 0.35089236D-02 0.16800733D-01 0.23412355D+04 0.83458464D+04 0.83458464D+04 0.12175576D+01  1  2 11  4  5  2        2 0.687019098163D+02
  </mgrwgt>
  </event>
  <event npLO=' -1 ' npNLO=' 0 '>
  5     66 0.12166989E+02 0.71016541E+02 0.75467711E-02 0.11842869E+00
       -2 -1    0    0    0  501 0.00000000E+00 0.00000000E+00 0.11469567E+01 0.11469567E+01 0.00000000E+00 0.0000E+00 0.9000E+01
        2 -1    0    0  501    0 0.00000000E+00 0.00000000E+00 -.16994121E+04 0.16994121E+04 0.00000000E+00 0.0000E+00 0.9000E+01
       23  2    1    2    0    0 0.00000000E+00 0.00000000E+00 -.16982651E+04 0.17005590E+04 0.88298402E+02 0.0000E+00 0.0000E+00
      -11  1    3    3    0    0 -.41347302E+02 0.13191557E+02 -.10050436E+04 0.10059802E+04 0.00000000E+00 0.0000E+00 0.9000E+01
       11  1    3    3    0    0 0.41347302E+02 -.13191557E+02 -.69322154E+03 0.69457880E+03 0.00000000E+00 0.0000E+00 0.9000E+01
#aMCatNLO 1  0  0  2  1 0.52252479D+02 0.00000000D+00  -5  5  0 0.00000000D+00 0.00000000D+00 0.00000000D+00 0.00000000D+00 0.00000000D+00
  <mgrwgt>
 0.3897293740D+03    6    2    0
 0.441492011500063D+02 0.000000000000000D+00 0.000000000000000D+00 0.441492011500063D+02
 0.441492011500063D+02 0.000000000000000D+00 0.000000000000000D+00 -.441492011500063D+02
 0.441492011500063D+02 -.413473022825483D+02 0.131915567706413D+02 -.809539289387739D+01
 0.441492011500063D+02 0.413473022825483D+02 -.131915567706413D+02 0.809539289387739D+01
 0.000000000000000D+00 0.000000000000000D+00 0.000000000000000D+00 0.000000000000000D+00
 0.778610535227984D+02 0.000000000000000D+00 0.000000000000000D+00 0.778610535227984D+02
 0.455064448046288D+02 0.000000000000000D+00 0.000000000000000D+00 -.455064448046288D+02
 0.486538399888762D+02 -.467805738248426D+02 0.106413660859581D+02 -.809539289387739D+01
 0.403863330098841D+02 0.363980624039089D+02 -.155145596495734D+02 0.809539289387739D+01
 0.343273253286669D+02 0.103825114209337D+02 0.487319356361531D+01 0.323546087181696D+02
0.170693164249D-01 0.000000000000D+00 0.000000000000D+00 0.935315439887D-01 0.000000000000D+00  5 -2 2 -11 11 21 0 0.17645487D-03 0.26144801D+00 0.18836166D+04 0.77966078D+04 0.77966078D+04 0.12207006D+01  1  2  2  2  5  2        2 0.413223376361D+03
-.947958196723D-03 0.000000000000D+00 -.655506695259D-04 0.935315439887D-01 0.000000000000D+00  5 -2 2 -11 11 21 2 0.17645487D-03 0.26144801D+00 0.18836166D+04 0.77966078D+04 0.77966078D+04 0.12207006D+01  1  2  3  2  5  2        2 -.375550292781D+02
0.857394258233D-03 0.000000000000D+00 0.000000000000D+00 0.935315439887D-01 0.000000000000D+00  5 -2 2 -11 11 21 2 0.17645487D-03 0.26144801D+00 0.18836166D+04 0.77966078D+04 0.77966078D+04 0.12207006D+01  1  2 15  2  5  2        2 0.309291267534D+02
0.158362271017D-02 0.000000000000D+00 0.000000000000D+00 0.935315439887D-01 0.000000000000D+00  5 -2 2 -11 11 21 2 0.17645487D-03 0.47526170D+00 0.24508229D+04 0.79281524D+04 0.79281524D+04 0.12199257D+01  1  2 12  2  5  2        2 0.983635203411D+01
-.742125583549D-03 0.000000000000D+00 0.000000000000D+00 0.935315439887D-01 0.000000000000D+00  5 -2 2 -11 11 21 2 0.17645487D-03 0.26144801D+00 0.18836166D+04 0.77966078D+04 0.77966078D+04 0.12207006D+01  1  2  4  2  5  2        2 -.267709936474D+02
0.103580307317D-03 0.000000000000D+00 0.000000000000D+00 0.935315439887D-01 0.000000000000D+00  5 -2 21 -11 11 -2 2 0.17645487D-03 0.47526170D+00 0.24508229D+04 0.79281524D+04 0.79281524D+04 0.12199257D+01  1  2 12  4  5  2        2 0.665417822455D-01
  </mgrwgt>
  </event>
  <event npLO=' -1 ' npNLO=' 0 '>
  5     66 0.12166989E+02 0.29624759E+02 0.75467711E-02 0.11687398E+00
       -2 -1    0    0    0  501 0.00000000E+00 0.00000000E+00 0.77641435E+00 0.77641435E+00 0.00000000E+00 0.0000E+00 0.9000E+01
        2 -1    0    0  501    0 0.00000000E+00 0.00000000E+00 -.26702222E+04 0.26702222E+04 0.00000000E+00 0.0000E+00 0.9000E+01
       23  2    1    2    0    0 0.00000000E+00 0.00000000E+00 -.26694458E+04 0.26709986E+04 0.91064787E+02 0.0000E+00 0.0000E+00
      -13  1    3    3    0    0 0.62756110E+01 -.17244635E+02 -.25569526E+04 0.25570185E+04 0.00000000E+00 0.0000E+00 0.9000E+01
       13  1    3    3    0    0 -.62756110E+01 0.17244635E+02 -.11249317E+03 0.11398014E+03 0.00000000E+00 0.0000E+00 0.9000E+01
#aMCatNLO 1  0  0  1  2 0.40876565D+02 0.00000000D+00  -5  5  0 0.00000000D+00 0.00000000D+00 0.00000000D+00 0.00000000D+00 0.00000000D+00
  <mgrwgt>
 0.3733634555D+03    7    2    0
 0.455323934833139D+02 0.000000000000000D+00 0.000000000000000D+00 0.455323934833139D+02
 0.455323934833139D+02 0.000000000000000D+00 0.000000000000000D+00 -.455323934833139D+02
 0.455323934833139D+02 0.627561101518639D+01 -.172446351123656D+02 -.416705906191257D+02
 0.455323934833139D+02 -.627561101518639D+01 0.172446351123656D+02 0.416705906191257D+02
 0.000000000000000D+00 -.000000000000000D+00 0.000000000000000D+00 0.000000000000000D+00
 0.780570382842102D+02 0.000000000000000D+00 0.000000000000000D+00 0.780570382842102D+02
 0.584162346962260D+02 0.000000000000000D+00 0.000000000000000D+00 -.584162346962260D+02
 0.550731357099918D+02 0.177631623893552D+02 -.313222319816742D+02 -.416705906191257D+02
 0.421326684678401D+02 0.373434480889751D+01 0.497778048154249D+01 0.416705906191257D+02
 0.392674688026042D+02 -.214975071982527D+02 0.263444515001317D+02 0.196408035879842D+02
0.373158427124D-01 0.000000000000D+00 0.000000000000D+00 0.100124538561D+01 0.000000000000D+00  5 -2 2 -13 13 21 0 0.11944836D-03 0.41080342D+00 0.33676073D+03 0.82927954D+04 0.82927954D+04 0.12178509D+01  1  2  2  1  5  1       -2 0.463560352550D+03
0.841152279950D-05 0.000000000000D+00 -.143302661503D-03 0.100124538561D+01 0.000000000000D+00  5 -2 2 -13 13 21 2 0.11944836D-03 0.41080342D+00 0.33676073D+03 0.82927954D+04 0.82927954D+04 0.12178509D+01  1  2  3  1  5  1       -2 -.830397737506D+01
0.107819821071D-02 0.000000000000D+00 0.000000000000D+00 0.100124538561D+01 0.000000000000D+00  5 -2 2 -13 13 21 2 0.11944836D-03 0.41080342D+00 0.33676073D+03 0.82927954D+04 0.82927954D+04 0.12178509D+01  1  2 15  1  5  1       -2 0.198655183315D+02
0.114235956156D-01 0.000000000000D+00 0.000000000000D+00 0.100124538561D+01 0.000000000000D+00  5 -2 2 -13 13 21 2 0.26271500D-03 0.41080342D+00 0.14529009D+04 0.94489684D+04 0.94489684D+04 0.12118918D+01  1  2 12  1  5  1       -2 0.731618348583D+02
0.112786339795D-01 0.000000000000D+00 -.105405572971D-01 0.100124538561D+01 0.000000000000D+00  5 -2 2 -13 13 21 2 0.29626823D-03 0.41080342D+00 0.33676073D+03 0.82927954D+04 0.82927954D+04 0.12178509D+01  1  2  5  1  5  1       -2 -.123337576208D+03
0.975913932311D-03 0.000000000000D+00 0.000000000000D+00 0.100124538561D+01 0.000000000000D+00  5 21 2 -13 13 2 2 0.26271500D-03 0.41080342D+00 0.14529009D+04 0.94489684D+04 0.94489684D+04 0.12118918D+01  1  2 12  3  5  1       -2 0.135124978924D+03
0.178040052546D-02 0.000000000000D+00 -.105265609656D-02 0.100124538561D+01 0.000000000000D+00  5 21 2 -13 13 2 2 0.29626823D-03 0.41080342D+00 0.33676073D+03 0.82927954D+04 0.82927954D+04 0.12178509D+01  1  2  5  3  5  1       -2 -.186707675584D+03
  </mgrwgt>
  </event>
  <event npLO=' -1 ' npNLO=' 0 '>
  5     66 0.12166989E+02 0.91386852E+02 0.75467711E-02 0.11558064E+00
       -2 -1    0    0    0  501 0.00000000E+00 0.00000000E+00 0.17169477E+02 0.17169477E+02 0.00000000E+00 0.0000E+00 0.9000E+01
        2 -1    0    0  501    0 0.00000000E+00 0.00000000E+00 -.12160471E+03 0.12160471E+03 0.00000000E+00 0.0000E+00 0.9000E+01
       23  2    1    2    0    0 0.00000000E+00 0.00000000E+00 -.10443523E+03 0.13877418E+03 0.91386852E+02 0.0000E+00 0.0000E+00
      -13  1    3    3    0    0 -.31687517E+02 -.10078321E+02 -.46261709E+01 0.33571904E+02 0.00000000E+00 0.0000E+00 0.9000E+01
       13  1    3    3    0    0 0.31687517E+02 0.10078321E+02 -.99809058E+02 0.10520228E+03 0.00000000E+00 0.0000E+00 0.9000E+01
#aMCatNLO 1  0  0  2  1 0.10628187D+03 0.00000000D+00  -5  5  0 0.00000000D+00 0.00000000D+00 0.00000000D+00 0.00000000D+00 0.00000000D+00
  <mgrwgt>
 0.3565580605D+03    3    2    0
 0.456934260852884D+02 0.000000000000000D+00 0.000000000000000D+00 0.456934260852884D+02
 0.456934260852884D+02 0.000000000000000D+00 0.000000000000000D+00 -.456934260852884D+02
 0.456934260852884D+02 -.316875173176006D+02 -.100783212003284D+02 0.313403553815443D+02
 0.456934260852884D+02 0.316875173176006D+02 0.100783212003284D+02 -.313403553815443D+02
 0.000000000000000D+00 -.000000000000000D+00 0.000000000000000D+00 0.000000000000000D+00
 0.115567848465537D+03 0.000000000000000D+00 0.000000000000000D+00 0.115567848465537D+03
 0.627577164215133D+02 0.000000000000000D+00 0.000000000000000D+00 -.627577164215133D+02
 0.388107111076758D+02 -.117929745593513D+02 -.196208861238342D+02 0.313403553815443D+02
 0.659489564674427D+02 0.579711316719644D+02 -.252880928005955D+01 -.313403553815443D+02
 0.735658973119315D+02 -.461781571126131D+02 0.221496954038938D+02 0.528101320440235D+02
0.248835711363D-01 0.000000000000D+00 0.000000000000D+00 0.108015772293D+01 0.000000000000D+00  5 -2 2 -13 13 21 0 0.26414580D-02 0.18708416D-01 0.11056713D+04 0.83515567D+04 0.83515567D+04 0.12175262D+01  1  2  2  2  5  2        2 0.359843647544D+03
-.121260900131D-02 0.000000000000D+00 -.955594651580D-04 0.108015772293D+01 0.000000000000D+00  5 -2 2 -13 13 21 2 0.26414580D-02 0.18708416D-01 0.11056713D+04 0.83515567D+04 0.83515567D+04 0.12175262D+01  1  2  3  2  5  2        2 -.301363384376D+02
0.125256046962D-02 0.000000000000D+00 0.000000000000D+00 0.108015772293D+01 0.000000000000D+00  5 -2 2 -13 13 21 2 0.26414580D-02 0.18708416D-01 0.11056713D+04 0.83515567D+04 0.83515567D+04 0.12175262D+01  1  2 15  2  5  2        2 0.268507514288D+02
  </mgrwgt>
  </event>
  <event npLO=' -1 ' npNLO=' 0 '>
  5     66 0.12166989E+02 0.55870507E+02 0.75467711E-02 0.11435683E+00
       -2 -1    0    0    0  501 0.00000000E+00 0.00000000E+00 0.27593893E+01 0.27593893E+01 0.00000000E+00 0.0000E+00 0.9000E+01
        2 -1    0    0  501    0 0.00000000E+00 0.00000000E+00 -.69735053E+03 0.69735053E+03 0.00000000E+00 0.0000E+00 0.9000E+01
       23  2    1    2    0    0 0.00000000E+00 0.00000000E+00 -.69459114E+03 0.70010992E+03 0.87732812E+02 0.0000E+00 0.0000E+00
      -11  1    3    3    0    0 0.37694042E+02 0.10550122E+02 -.18927585E+03 0.19328087E+03 0.00000000E+00 0.0000E+00 0.9000E+01
       11  1    3    3    0    0 -.37694042E+02 -.10550122E+02 -.50531529E+03 0.50682905E+03 0.00000000E+00 0.0000E+00 0.9000E+01
#aMCatNLO 1  0  0  2  1 0.82171141D+02 0.00000000D+00  -5  5  0 0.00000000D+00 0.00000000D+00 0.00000000D+00 0.00000000D+00 0.00000000D+00
  <mgrwgt>
 0.2753014581D+03    7    2    0
 0.438664060573807D+02 0.000000000000000D+00 0.000000000000000D+00 0.438664060573807D+02
 0.438664060573807D+02 0.000000000000000D+00 0.000000000000000D+00 -.438664060573807D+02
 0.438664060573807D+02 0.376940423528212D+02 0.105501222488495D+02 0.198019108176220D+02
 0.438664060573807D+02 -.376940423528212D+02 -.105501222488495D+02 -.198019108176220D+02
 0.000000000000000D+00 -.000000000000000D+00 -.000000000000000D+00 -.000000000000000D+00
 0.713519706776651D+02 0.000000000000000D+00 0.000000000000000D+00 0.713519706776651D+02
 0.139198390084668D+03 0.000000000000000D+00 0.000000000000000D+00 -.139198390084668D+03
 0.877976659551922D+02 0.819114718471999D+02 0.246338233933719D+02 0.198019108176220D+02
 0.248247108022024D+02 -.146251476254980D+02 -.320244458442598D+01 -.198019108176220D+02
 0.979279840049384D+02 -.672863242217019D+02 -.214313788089459D+02 -.678464194070029D+02
0.111110467331D-01 0.000000000000D+00 0.000000000000D+00 0.715555373768D-01 0.000000000000D+00  5 -2 2 -11 11 21 0 0.42452143D-03 0.10728470D+00 0.15321459D+04 0.76970463D+04 0.76970463D+04 0.12212970D+01  1  2  2  2  5  2        2 0.299075450446D+03
-.607537441667D-03 0.000000000000D+00 -.426693450611D-04 0.715555373768D-01 0.000000000000D+00  5 -2 2 -11 11 21 2 0.42452143D-03 0.10728470D+00 0.15321459D+04 0.76970463D+04 0.76970463D+04 0.12212970D+01  1  2  3  2  5  2        2 -.271569020945D+02
0.566609794366D-03 0.000000000000D+00 0.000000000000D+00 0.715555373768D-01 0.000000000000D+00  5 -2 2 -11 11 21 2 0.42452143D-03 0.10728470D+00 0.15321459D+04 0.76970463D+04 0.76970463D+04 0.12212970D+01  1  2 15  2  5  2        2 0.227484818626D+02
0.646036685812D-04 0.000000000000D+00 0.000000000000D+00 0.715555373768D-01 0.000000000000D+00  5 -2 2 -11 11 21 2 0.42452143D-03 0.55375015D+00 0.73208615D+04 0.12683800D+05 0.12683800D+05 0.11987703D+01  1  2 12  2  5  2        2 0.557979973342D-01
0.125848102157D-02 0.000000000000D+00 -.442069141000D-02 0.715555373768D-01 0.000000000000D+00  5 -2 2 -11 11 21 2 0.42452143D-03 0.41620060D+00 0.15321459D+04 0.76970463D+04 0.76970463D+04 0.12212970D+01  1  2  5  2  5  2        2 -.190371725381D+02
0.129445653372D-04 0.000000000000D+00 0.000000000000D+00 0.715555373768D-01 0.000000000000D+00  5 -2 21 -11 11 -2 2 0.42452143D-03 0.55375015D+00 0.73208615D+04 0.12683800D+05 0.12683800D+05 0.11987703D+01  1  2 12  4  5  2        2 0.704337708411D-03
0.276315031191D-03 0.000000000000D+00 -.712280350416D-03 0.715555373768D-01 0.000000000000D+00  5 -2 21 -11 11 -2 2 0.42452143D-03 0.41620060D+00 0.15321459D+04 0.76970463D+04 0.76970463D+04 0.12212970D+01  1  2  5  4  5  2        2 -.384901936532D+00
  </mgrwgt>
  </event>
  <event npLO=' -1 ' npNLO=' 0 '>
  5     66 0.12166989E+02 0.49396056E+02 0.75467711E-02 0.11710846E+00
       -2 -1    0    0    0  501 0.00000000E+00 0.00000000E+00 0.10109637E+02 0.10109637E+02 0.00000000E+00 0.0000E+00 0.9000E+01
        2 -1    0    0  501    0 0.00000000E+00 0.00000000E+00 -.21199016E+03 0.21199016E+03 0.00000000E+00 0.0000E+00 0.9000E+01
       23  2    1    2    0    0 0.00000000E+00 0.00000000E+00 -.20188052E+03 0.22209979E+03 0.92588198E+02 0.0000E+00 0.0000E+00
      -13  1    3    3    0    0 0.26941347E+02 0.33667494E+02 -.14135169E+03 0.14778240E+03 0.00000000E+00 0.0000E+00 0.9000E+01
       13  1    3    3    0    0 -.26941347E+02 -.33667494E+02 -.60528826E+02 0.74317394E+02 0.00000000E+00 0.0000E+00 0.9000E+01
#aMCatNLO 1  0  0  1  2 0.25199478D+02 0.00000000D+00  -5  5  0 0.00000000D+00 0.00000000D+00 0.00000000D+00 0.00000000D+00 0.00000000D+00
  <mgrwgt>
 0.3342072754D+03    7    2    0
 0.462940989662961D+02 0.000000000000000D+00 0.000000000000000D+00 0.462940989662961D+02
 0.462940989662961D+02 0.000000000000000D+00 0.000000000000000D+00 -.462940989662961D+02
 0.462940989662961D+02 0.269413473071133D+02 0.336674941138929D+02 -.168465796074366D+02
 0.462940989662961D+02 -.269413473071133D+02 -.336674941138929D+02 0.168465796074366D+02
 0.000000000000000D+00 0.000000000000000D+00 0.000000000000000D+00 0.000000000000000D+00
 0.333807514144083D+03 0.000000000000000D+00 0.000000000000000D+00 0.333807514144083D+03
 0.485046732753107D+02 0.000000000000000D+00 0.000000000000000D+00 -.485046732753107D+02
 0.375110481903707D+02 0.168504875139129D+02 0.289712368119499D+02 -.168465796074366D+02
 0.584020229218036D+02 -.395476599586459D+02 -.395344359854101D+02 0.168465796074366D+02
 0.286399116307219D+03 0.226971724447329D+02 0.105631991734602D+02 0.285302840868772D+03
0.232878922977D-01 0.000000000000D+00 0.000000000000D+00 0.282650662874D+00 0.000000000000D+00  5 -2 2 -13 13 21 0 0.15553288D-02 0.32613870D-01 0.18593364D+04 0.85725744D+04 0.85725744D+04 0.12163272D+01  1  2  2  1  5  1       -2 0.384115449809D+03
-.128583606735D-02 0.000000000000D+00 -.894316382660D-04 0.282650662874D+00 0.000000000000D+00  5 -2 2 -13 13 21 2 0.15553288D-02 0.32613870D-01 0.18593364D+04 0.85725744D+04 0.85725744D+04 0.12163272D+01  1  2  3  1  5  1       -2 -.347128627715D+02
0.126734267383D-02 0.000000000000D+00 0.000000000000D+00 0.282650662874D+00 0.000000000000D+00  5 -2 2 -13 13 21 2 0.15553288D-02 0.32613870D-01 0.18593364D+04 0.85725744D+04 0.85725744D+04 0.12163272D+01  1  2 15  1  5  1       -2 0.309261945295D+02
0.440644395051D+00 0.000000000000D+00 0.000000000000D+00 0.282650662874D+00 0.000000000000D+00  5 -2 2 -13 13 21 2 0.11750346D-01 0.32613870D-01 0.32758201D+04 0.91993172D+04 0.91993172D+04 0.12131069D+01  1  2 12  1  5  1       -2 0.568738199498D+03
-.419614264606D+00 0.000000000000D+00 -.119584911715D-01 0.282650662874D+00 0.000000000000D+00  5 -2 2 -13 13 21 2 0.11645405D-01 0.32613870D-01 0.18593364D+04 0.85725744D+04 0.85725744D+04 0.12163272D+01  1  2  5  1  5  1       -2 -.574477134197D+03
0.108537597677D+00 0.000000000000D+00 0.000000000000D+00 0.282650662874D+00 0.000000000000D+00  5 21 2 -13 13 2 2 0.11750346D-01 0.32613870D-01 0.32758201D+04 0.91993172D+04 0.91993172D+04 0.12131069D+01  1  2 12  3  5  1       -2 0.197738233014D+04
-.104229177016D+00 0.000000000000D+00 -.293391211785D-02 0.282650662874D+00 0.000000000000D+00  5 21 2 -13 13 2 2 0.11645405D-01 0.32613870D-01 0.18593364D+04 0.85725744D+04 0.85725744D+04 0.12163272D+01  1  2  5  3  5  1       -2 -.201776490160D+04
  </mgrwgt>
  </event>
  <event npLO=' -1 ' npNLO=' 0 '>
  5     66 0.12166989E+02 0.66501427E+02 0.75467711E-02 0.11793613E+00
       -2 -1    0    0    0  501 0.00000000E+00 0.00000000E+00 0.17190124E+02 0.17190124E+02 0.00000000E+00 0.0000E+00 0.9000E+01
        2 -1    0    0  501    0 0.00000000E+00 0.00000000E+00 -.12049874E+03 0.12049874E+03 0.00000000E+00 0.0000E+00 0.9000E+01
       23  2    1    2    0    0 0.00000000E+00 0.00000000E+00 -.10330861E+03 0.13768886E+03 0.91025014E+02 0.0000E+00 0.0000E+00
      -11  1    3    3    0    0 -.25670939E+02 -.15077993E+02 -.10372646E+03 0.10791442E+03 0.00000000E+00 0.0000E+00 0.9000E+01
       11  1    3    3    0    0 0.25670939E+02 0.15077993E+02 0.41784645E+00 0.29774445E+02 0.00000000E+00 0.0000E+00 0.9000E+01
#aMCatNLO 1  0  0  1  2 0.15535433D+02 0.00000000D+00  -5  5  0 0.00000000D+00 0.00000000D+00 0.00000000D+00 0.00000000D+00 0.00000000D+00
  <mgrwgt>
 0.4679578801D+03    6    2    0
 0.455125070357918D+02 0.000000000000000D+00 0.000000000000000D+00 0.455125070357918D+02
 0.455125070357918D+02 0.000000000000000D+00 0.000000000000000D+00 -.455125070357918D+02
 0.455125070357918D+02 -.256709389034786D+02 -.150779925925772D+02 -.344244873872517D+02
 0.455125070357918D+02 0.256709389034786D+02 0.150779925925772D+02 0.344244873872517D+02
 0.000000000000000D+00 -.000000000000000D+00 -.000000000000000D+00 -.000000000000000D+00
 0.494031075566887D+02 0.000000000000000D+00 0.000000000000000D+00 0.494031075566887D+02
 0.520457596288690D+02 0.000000000000000D+00 0.000000000000000D+00 -.520457596288690D+02
 0.427003762693319D+02 -.222458761620664D+02 -.119748818553453D+02 -.344244873872517D+02
 0.488257429727073D+02 0.293338327245149D+02 0.183965785583082D+02 0.344244873872517D+02
 0.992274794351846D+01 -.708795656244845D+01 -.642169670296294D+01 -.264265207218027D+01
0.273056672279D-01 0.000000000000D+00 0.000000000000D+00 0.856056912960D+00 0.000000000000D+00  5 -2 2 -11 11 21 0 0.26446345D-02 0.18538268D-01 0.88634296D+03 0.82855532D+04 0.82855532D+04 0.12178911D+01  1  2  2  1  5  1       -2 0.398080247765D+03
-.118471655271D-02 0.000000000000D+00 -.104860951903D-03 0.856056912960D+00 0.000000000000D+00  5 -2 2 -11 11 21 2 0.26446345D-02 0.18538268D-01 0.88634296D+03 0.82855532D+04 0.82855532D+04 0.12178911D+01  1  2  3  1  5  1       -2 -.306864873405D+02
0.936049147860D-03 0.000000000000D+00 0.000000000000D+00 0.856056912960D+00 0.000000000000D+00  5 -2 2 -11 11 21 2 0.26446345D-02 0.18538268D-01 0.88634296D+03 0.82855532D+04 0.82855532D+04 0.12178911D+01  1  2 15  1  5  1       -2 0.202410680852D+02
0.134566848681D-01 0.000000000000D+00 0.000000000000D+00 0.856056912960D+00 0.000000000000D+00  5 -2 2 -11 11 21 2 0.32827950D-02 0.18538268D-01 0.12059564D+04 0.83770305D+04 0.83770305D+04 0.12173862D+01  1  2 12  1  5  1       -2 0.213830240376D+03
-.112611135942D-01 0.000000000000D+00 0.000000000000D+00 0.856056912960D+00 0.000000000000D+00  5 -2 2 -11 11 21 2 0.26446345D-02 0.18538268D-01 0.88634296D+03 0.82855532D+04 0.82855532D+04 0.12178911D+01  1  2  4  1  5  1       -2 -.243509614316D+03
0.408562076399D-03 0.000000000000D+00 0.000000000000D+00 0.856056912960D+00 0.000000000000D+00  5 21 2 -11 11 2 2 0.32827950D-02 0.18538268D-01 0.12059564D+04 0.83770305D+04 0.83770305D+04 0.12173862D+01  1  2 12  3  5  1       -2 0.110002425498D+03
  </mgrwgt>
  </event>
  <event npLO=' -1 ' npNLO=' 0 '>
  5     66 0.12166989E+02 0.37050746E+02 0.75467711E-02 0.11510542E+00
       -2 -1    0    0    0  501 0.00000000E+00 0.00000000E+00 0.31441424E+03 0.31441424E+03 0.00000000E+00 0.0000E+00 0.9000E+01
        2 -1    0    0  501    0 0.00000000E+00 0.00000000E+00 -.70919275E+01 0.70919275E+01 0.00000000E+00 0.0000E+00 0.9000E+01
       23  2    1    2    0    0 0.00000000E+00 0.00000000E+00 0.30732232E+03 0.32150617E+03 0.94441580E+02 0.0000E+00 0.0000E+00
      -13  1    3    3    0    0 0.36443445E+02 -.16596035E+02 0.23885338E+03 0.24218689E+03 0.00000000E+00 0.0000E+00 0.9000E+01
       13  1    3    3    0    0 -.36443445E+02 0.16596035E+02 0.68468939E+02 0.79319283E+02 0.00000000E+00 0.0000E+00 0.9000E+01
#aMCatNLO 1  0  0  2  1 0.54510499D+02 0.00000000D+00  -5  5  0 0.00000000D+00 0.00000000D+00 0.00000000D+00 0.00000000D+00 0.00000000D+00
  <mgrwgt>
 0.1827526223D+03    7    2    0
 0.472207901717276D+02 0.000000000000000D+00 0.000000000000000D+00 0.472207901717276D+02
 0.472207901717276D+02 0.000000000000000D+00 0.000000000000000D+00 -.472207901717276D+02
 0.472207901717276D+02 0.364434447387765D+02 -.165960350886275D+02 0.250249870999192D+02
 0.472207901717276D+02 -.364434447387765D+02 0.165960350886275D+02 -.250249870999192D+02
 0.000000000000000D+00 0.000000000000000D+00 0.000000000000000D+00 -.000000000000000D+00
 0.584160462797082D+02 0.000000000000000D+00 0.000000000000000D+00 0.584160462797082D+02
 0.201318889817855D+03 0.000000000000000D+00 0.000000000000000D+00 -.201318889817855D+03
 0.578395779738307D+02 0.299021727301024D+02 -.427203331782284D+02 0.250249870999192D+02
 0.498860658630584D+02 -.424895149214987D+02 -.755054366771173D+01 -.250249870999192D+02
 0.152009292260674D+03 0.125873421913963D+02 0.502708768459401D+02 -.142902843538146D+03
0.771665744820D-01 0.000000000000D+00 0.000000000000D+00 0.150908587566D+00 0.000000000000D+00  5 -2 2 -13 13 21 0 0.48371422D-01 0.10910658D-02 0.16035530D+04 0.89192121D+04 0.89192121D+04 0.12145148D+01  1  2  2  2  5  2        2 0.454070937350D+03
-.414538942791D-02 0.000000000000D+00 -.296339964437D-03 0.150908587566D+00 0.000000000000D+00  5 -2 2 -13 13 21 2 0.48371422D-01 0.10910658D-02 0.16035530D+04 0.89192121D+04 0.89192121D+04 0.12145148D+01  1  2  3  2  5  2        2 -.403940663469D+02
0.406566664334D-02 0.000000000000D+00 0.000000000000D+00 0.150908587566D+00 0.000000000000D+00  5 -2 2 -13 13 21 2 0.48371422D-01 0.10910658D-02 0.16035530D+04 0.89192121D+04 0.89192121D+04 0.12145148D+01  1  2 15  2  5  2        2 0.352883916561D+02
0.964079584769D-01 0.000000000000D+00 0.000000000000D+00 0.150908587566D+00 0.000000000000D+00  5 -2 2 -13 13 21 2 0.48371422D-01 0.57544142D-02 0.54113390D+04 0.11604814D+05 0.11604814D+05 0.12026876D+01  1  2 12  2  5  2        2 0.913171584376D+02
-.955776519801D-01 0.000000000000D+00 -.414493803714D-01 0.150908587566D+00 0.000000000000D+00  5 -2 2 -13 13 21 2 0.48371422D-01 0.57337866D-02 0.16035530D+04 0.89192121D+04 0.89192121D+04 0.12145148D+01  1  2  5  2  5  2        2 -.160220952395D+03
0.195902987502D-01 0.000000000000D+00 0.000000000000D+00 0.150908587566D+00 0.000000000000D+00  5 -2 21 -13 13 -2 2 0.48371422D-01 0.57544142D-02 0.54113390D+04 0.11604814D+05 0.11604814D+05 0.12026876D+01  1  2 12  4  5  2        2 0.235977547254D+03
-.209506946305D-01 0.000000000000D+00 -.840313177278D-02 0.150908587566D+00 0.000000000000D+00  5 -2 21 -13 13 -2 2 0.48371422D-01 0.57337866D-02 0.16035530D+04 0.89192121D+04 0.89192121D+04 0.12145148D+01  1  2  5  4  5  2        2 -.433286393704D+03
  </mgrwgt>
  </event>
  <event npLO=' -1 ' npNLO=' 0 '>
  5     66 0.12166989E+02 0.60458106E+02 0.75467711E-02 0.11796716E+00
       -2 -1    0    0    0  501 0.00000000E+00 0.00000000E+00 0.34162141E+01 0.34162141E+01 0.00000000E+00 0.0000E+00 0.9000E+01
        2 -1    0    0  501    0 0.00000000E+00 0.00000000E+00 -.60993412E+03 0.60993412E+03 0.00000000E+00 0.0000E+00 0.9000E+01
       23  2    1    2    0    0 0.00000000E+00 0.00000000E+00 -.60651791E+03 0.61335034E+03 0.91294371E+02 0.0000E+00 0.0000E+00
      -13  1    3    3    0    0 -.61937460E+01 -.19748714E+02 -.57659810E+03 0.57696945E+03 0.00000000E+00 0.0000E+00 0.9000E+01
       13  1    3    3    0    0 0.61937460E+01 0.19748714E+02 -.29919810E+02 0.36380891E+02 0.00000000E+00 0.0000E+00 0.9000E+01
#aMCatNLO 1  0  0  1  2 0.74366070D+01 0.00000000D+00  -5  5  0 0.00000000D+00 0.00000000D+00 0.00000000D+00 0.00000000D+00 0.00000000D+00
  <mgrwgt>
 0.6940725796D+03    8    2    0
 0.456471854353432D+02 0.000000000000000D+00 0.000000000000000D+00 0.456471854353432D+02
 0.456471854353432D+02 0.000000000000000D+00 0.000000000000000D+00 -.456471854353432D+02
 0.456471854353432D+02 -.619374601327298D+01 -.197487138624112D+02 -.406852718962561D+02
 0.456471854353432D+02 0.619374601327298D+01 0.197487138624112D+02 0.406852718962561D+02
 0.000000000000000D+00 0.000000000000000D+00 -.000000000000000D+00 -.000000000000000D+00
 0.466794898790711D+02 0.000000000000000D+00 0.000000000000000D+00 0.466794898790711D+02
 0.490061191468646D+02 0.000000000000000D+00 0.000000000000000D+00 -.490061191468646D+02
 0.455079279802722D+02 -.777100881585631D+01 -.188491798699370D+02 -.406852718962561D+02
 0.458589186207125D+02 0.461040999701598D+01 0.206517114895657D+02 0.406852718962561D+02
 0.431876242495109D+01 0.316059881884033D+01 -.180253161962871D+01 -.232662926779348D+01
0.176357674902D-01 0.000000000000D+00 0.000000000000D+00 0.973338335945D+00 0.000000000000D+00  5 -2 2 -13 13 21 0 0.52557140D-03 0.93836019D-01 0.42837419D+03 0.83346622D+04 0.83346622D+04 0.12176193D+01  1  2  2  1  5  1       -2 0.415640877158D+03
-.234528253327D-03 0.000000000000D+00 -.677259907664D-04 0.973338335945D+00 0.000000000000D+00  5 -2 2 -13 13 21 2 0.52557140D-03 0.93836019D-01 0.42837419D+03 0.83346622D+04 0.83346622D+04 0.12176193D+01  1  2  3  1  5  1       -2 -.152190028668D+02
0.650750436545D-03 0.000000000000D+00 0.000000000000D+00 0.973338335945D+00 0.000000000000D+00  5 -2 2 -13 13 21 2 0.52557140D-03 0.93836019D-01 0.42837419D+03 0.83346622D+04 0.83346622D+04 0.12176193D+01  1  2 15  1  5  1       -2 0.227384778220D+02
0.143915688615D-01 0.000000000000D+00 0.000000000000D+00 0.973338335945D+00 0.000000000000D+00  5 -2 2 -13 13 21 2 0.57700573D-03 0.93836019D-01 0.51046157D+03 0.83479007D+04 0.83479007D+04 0.12175463D+01  1  2 12  1  5  1       -2 0.442997617388D+03
-.915254459945D-02 0.000000000000D+00 0.000000000000D+00 0.973338335945D+00 0.000000000000D+00  5 -2 2 -13 13 21 2 0.52557140D-03 0.93836019D-01 0.42837419D+03 0.83346622D+04 0.83346622D+04 0.12176193D+01  1  2  4  1  5  1       -2 -.319807595511D+03
0.170395503650D-03 0.000000000000D+00 0.000000000000D+00 0.973338335945D+00 0.582616357119D+00  5 -2 2 -13 13 21 2 0.53745712D-03 0.10074091D+00 0.51046157D+03 0.83479007D+04 0.83479007D+04 0.12175463D+01  1  2 11  1  5  1       -2 0.533713091705D+01
0.223502324211D-03 0.000000000000D+00 0.000000000000D+00 0.973338335945D+00 0.000000000000D+00  5 21 2 -13 13 2 2 0.57700573D-03 0.93836019D-01 0.51046157D+03 0.83479007D+04 0.83479007D+04 0.12175463D+01  1  2 12  3  5  1       -2 0.139309556278D+03
0.481937926024D-05 0.000000000000D+00 0.000000000000D+00 0.973338335945D+00 0.247278269972D-02  5 21 2 -13 13 2 2 0.53745712D-03 0.10074091D+00 0.51046157D+03 0.83479007D+04 0.83479007D+04 0.12175463D+01  1  2 11  3  5  1       -2 0.307551843578D+01
  </mgrwgt>
  </event>
  <event npLO=' -1 ' npNLO=' 0 '>
  5     66 0.12166989E+02 0.91797696E+02 0.75467711E-02 0.10127037E+00
       -2 -1    0    0    0  501 0.00000000E+00 0.00000000E+00 0.99111957E+02 0.99111957E+02 0.00000000E+00 0.0000E+00 0.9000E+01
        2 -1    0    0  501    0 0.00000000E+00 0.00000000E+00 -.21255803E+02 0.21255803E+02 0.00000000E+00 0.0000E+00 0.9000E+01
       23  2    1    2    0    0 0.00000000E+00 0.00000000E+00 0.77856154E+02 0.12036776E+03 0.91797696E+02 0.0000E+00 0.0000E+00
      -11  1    3    3    0    0 0.17451271E+02 0.46189143E+01 0.94261658E+02 0.95974692E+02 0.00000000E+00 0.0000E+00 0.9000E+01
       11  1    3    3    0    0 -.17451271E+02 -.46189143E+01 -.16405504E+02 0.24393069E+02 0.00000000E+00 0.0000E+00 0.9000E+01
#aMCatNLO 1  0  0  1  2 0.49246032D+03 0.00000000D+00  -5  5  0 0.00000000D+00 0.00000000D+00 0.00000000D+00 0.00000000D+00 0.00000000D+00
  <mgrwgt>
 0.4099630594D+03    3    2    0
 0.458988481862853D+02 0.000000000000000D+00 0.000000000000000D+00 0.458988481862853D+02
 0.458988481862853D+02 0.000000000000000D+00 0.000000000000000D+00 -.458988481862853D+02
 0.458988481862853D+02 0.174512713836214D+02 0.461891432188405D+01 0.421997988432404D+02
 0.458988481862853D+02 -.174512713836214D+02 -.461891432188405D+01 -.421997988432404D+02
 0.000000000000000D+00 -.000000000000000D+00 0.000000000000000D+00 -.000000000000000D+00
 0.186257954181737D+03 0.000000000000000D+00 0.000000000000000D+00 0.186257954181737D+03
 0.470152829609348D+03 0.000000000000000D+00 0.000000000000000D+00 -.470152829609348D+03
 0.177769885095287D+03 0.164894495609439D+03 -.512943889922682D+02 0.421997988432404D+02
 0.954627024094326D+02 0.757347653752812D+02 -.399568497563691D+02 -.421997988432404D+02
 0.383178196286366D+03 -.240629260984721D+03 0.912512387486373D+02 -.283894875427611D+03
0.410256135969D-01 0.000000000000D+00 0.000000000000D+00 0.117146118793D+01 0.000000000000D+00  5 -2 2 -11 11 21 0 0.15247993D-01 0.32701236D-02 0.32588124D+03 0.84268171D+04 0.84268171D+04 0.12171139D+01  1  2  2  1  5  1       -2 0.391854922374D+03
0.133974612472D-03 0.000000000000D+00 -.157549158504D-03 0.117146118793D+01 0.000000000000D+00  5 -2 2 -11 11 21 2 0.15247993D-01 0.32701236D-02 0.32588124D+03 0.84268171D+04 0.84268171D+04 0.12171139D+01  1  2  3  1  5  1       -2 -.535514689667D+01
0.165827325704D-02 0.000000000000D+00 0.000000000000D+00 0.117146118793D+01 0.000000000000D+00  5 -2 2 -11 11 21 2 0.15247993D-01 0.32701236D-02 0.32588124D+03 0.84268171D+04 0.84268171D+04 0.12171139D+01  1  2 15  1  5  1       -2 0.234632839472D+02
  </mgrwgt>
  </event>
  <event npLO=' -1 ' npNLO=' 0 '>
  5     66 0.12166989E+02 0.54896081E+02 0.75467711E-02 0.11535346E+00
       -2 -1    0    0    0  501 0.00000000E+00 0.00000000E+00 0.49288613E+01 0.49288613E+01 0.00000000E+00 0.0000E+00 0.9000E+01
        2 -1    0    0  501    0 0.00000000E+00 0.00000000E+00 -.41850429E+03 0.41850429E+03 0.00000000E+00 0.0000E+00 0.9000E+01
       23  2    1    2    0    0 0.00000000E+00 0.00000000E+00 -.41357543E+03 0.42343315E+03 0.90835007E+02 0.0000E+00 0.0000E+00
      -13  1    3    3    0    0 -.24822512E+02 -.23922719E+02 -.68952286E+02 0.77090021E+02 0.00000000E+00 0.0000E+00 0.9000E+01
       13  1    3    3    0    0 0.24822512E+02 0.23922719E+02 -.34462314E+03 0.34634313E+03 0.00000000E+00 0.0000E+00 0.9000E+01
#aMCatNLO 1  0  0  1  2 0.77553056D+02 0.00000000D+00  -5  5  0 0.00000000D+00 0.00000000D+00 0.00000000D+00 0.00000000D+00 0.00000000D+00
  <mgrwgt>
 0.3536671005D+03    7    2    0
 0.454175034413131D+02 0.000000000000000D+00 0.000000000000000D+00 0.454175034413131D+02
 0.454175034413131D+02 0.000000000000000D+00 0.000000000000000D+00 -.454175034413131D+02
 0.454175034413131D+02 -.248225121019759D+02 -.239227186258956D+02 0.295684975156867D+02
 0.454175034413131D+02 0.248225121019759D+02 0.239227186258956D+02 -.295684975156867D+02
 0.000000000000000D+00 0.000000000000000D+00 -.000000000000000D+00 0.000000000000000D+00
 0.807341188932236D+02 0.000000000000000D+00 0.000000000000000D+00 0.807341188932236D+02
 0.803843920111294D+02 0.000000000000000D+00 0.000000000000000D+00 -.803843920111294D+02
 0.441010899206428D+02 -.327193494865881D+02 -.232929233796515D+00 0.295684975156867D+02
 0.620631569138484D+02 0.153411600728660D+02 0.523659069280434D+02 -.295684975156867D+02
 0.549542640698618D+02 0.173781894137221D+02 -.521329776942469D+02 0.349726882094106D+00
0.204680922477D-01 0.000000000000D+00 0.000000000000D+00 0.934651703605D+00 0.000000000000D+00  5 -2 2 -13 13 21 0 0.75828636D-03 0.64385276D-01 0.11884536D+04 0.82509985D+04 0.82509985D+04 0.12180835D+01  1  2  2  1  5  1       -2 0.439952806728D+03
-.103203158612D-02 0.000000000000D+00 -.786028636038D-04 0.934651703605D+00 0.000000000000D+00  5 -2 2 -13 13 21 2 0.75828636D-03 0.64385276D-01 0.11884536D+04 0.82509985D+04 0.82509985D+04 0.12180835D+01  1  2  3  1  5  1       -2 -.377710309473D+02
0.944320406762D-03 0.000000000000D+00 0.000000000000D+00 0.934651703605D+00 0.000000000000D+00  5 -2 2 -13 13 21 2 0.75828636D-03 0.64385276D-01 0.11884536D+04 0.82509985D+04 0.82509985D+04 0.12180835D+01  1  2 15  1  5  1       -2 0.301163423864D+02
0.226216302732D-03 0.000000000000D+00 0.000000000000D+00 0.934651703605D+00 0.000000000000D+00  5 -2 2 -13 13 21 2 0.23856986D-02 0.64385276D-01 0.50580661D+04 0.11270847D+05 0.11270847D+05 0.12039827D+01  1  2 12  1  5  1       -2 0.145617382843D+01
0.646316463049D-02 0.000000000000D+00 -.608853431870D-02 0.934651703605D+00 0.000000000000D+00  5 -2 2 -13 13 21 2 0.24030618D-02 0.64385276D-01 0.11884536D+04 0.82509985D+04 0.82509985D+04 0.12180835D+01  1  2  5  1  5  1       -2 -.341751774073D+02
0.297667698168D-04 0.000000000000D+00 0.000000000000D+00 0.934651703605D+00 0.000000000000D+00  5 21 2 -13 13 2 2 0.23856986D-02 0.64385276D-01 0.50580661D+04 0.11270847D+05 0.11270847D+05 0.12039827D+01  1  2 12  3  5  1       -2 0.337248863921D+01
0.112694063557D-02 0.000000000000D+00 -.807316281309D-03 0.934651703605D+00 0.000000000000D+00  5 21 2 -13 13 2 2 0.24030618D-02 0.64385276D-01 0.11884536D+04 0.82509985D+04 0.82509985D+04 0.12180835D+01  1  2  5  3  5  1       -2 -.492845027064D+02
  </mgrwgt>
  </event>
  <event npLO=' -1 ' npNLO=' 0 '>
  5     66 0.12166989E+02 0.91675616E+02 0.75467711E-02 0.11522691E+00
       -2 -1    0    0    0  501 0.00000000E+00 0.00000000E+00 0.47616537E+00 0.47616537E+00 0.00000000E+00 0.0000E+00 0.9000E+01
        2 -1    0    0  501    0 0.00000000E+00 0.00000000E+00 -.44125524E+04 0.44125524E+04 0.00000000E+00 0.0000E+00 0.9000E+01
       23  2    1    2    0    0 0.00000000E+00 0.00000000E+00 -.44120763E+04 0.44130286E+04 0.91675616E+02 0.0000E+00 0.0000E+00
      -13  1    3    3    0    0 -.22641720E+01 0.25926125E+01 -.44063224E+04 0.44063237E+04 0.00000000E+00 0.0000E+00 0.9000E+01
       13  1    3    3    0    0 0.22641720E+01 -.25926125E+01 -.57538891E+01 0.67048754E+01 0.00000000E+00 0.0000E+00 0.9000E+01
#aMCatNLO 1  0  0  2  2 0.14948885D+03 0.00000000D+00  -5  5  0 0.00000000D+00 0.00000000D+00 0.00000000D+00 0.00000000D+00 0.00000000D+00
  <mgrwgt>
 0.1940155829D+03    3    2    0
 0.458378081573645D+02 0.000000000000000D+00 0.000000000000000D+00 0.458378081573645D+02
 0.458378081573645D+02 0.000000000000000D+00 0.000000000000000D+00 -.458378081573645D+02
 0.458378081573645D+02 -.226417202762137D+01 0.259261245049425D+01 -.457083859087392D+02
 0.458378081573645D+02 0.226417202762137D+01 -.259261245049425D+01 0.457083859087392D+02
 0.000000000000000D+00 0.000000000000000D+00 -.000000000000000D+00 0.000000000000000D+00
 0.170738014179610D+03 0.000000000000000D+00 0.000000000000000D+00 0.170738014179610D+03
 0.599501971759714D+02 0.000000000000000D+00 0.000000000000000D+00 -.599501971759714D+02
 0.551681766418453D+02 -.514091492032847D+01 0.304605017257687D+02 -.457083859087392D+02
 0.517890206911105D+02 -.516329410839730D+00 0.243429563878659D+02 0.457083859087392D+02
 0.123731014022625D+03 0.565724433116820D+01 -.548034581136346D+02 0.110787817003638D+03
0.828302414605D-01 0.000000000000D+00 0.000000000000D+00 0.926247334591D+00 0.000000000000D+00  5 -2 2 -13 13 21 0 0.73256210D-04 0.67885422D+00 0.11848114D+02 0.84044186D+04 0.84044186D+04 0.12172362D+01  1  2  2  2  5  2        2 0.121124839960D+03
0.329016969255D-01 0.000000000000D+00 -.318089936912D-03 0.926247334591D+00 0.000000000000D+00  5 -2 2 -13 13 21 2 0.73256210D-04 0.67885422D+00 0.11848114D+02 0.84044186D+04 0.84044186D+04 0.12172362D+01  1  2  3  2  5  2        2 0.667631904620D+02
0.282808876351D-02 0.000000000000D+00 0.000000000000D+00 0.926247334591D+00 0.000000000000D+00  5 -2 2 -13 13 21 2 0.73256210D-04 0.67885422D+00 0.11848114D+02 0.84044186D+04 0.84044186D+04 0.12172362D+01  1  2 15  2  5  2        2 0.612755252080D+01
  </mgrwgt>
  </event>
  <event npLO=' -1 ' npNLO=' 0 '>
  5     66 0.12166989E+02 0.45541230E+02 0.75467711E-02 0.11633731E+00
       -2 -1    0    0    0  501 0.00000000E+00 0.00000000E+00 0.19590600E+01 0.19590600E+01 0.00000000E+00 0.0000E+00 0.9000E+01
        2 -1    0    0  501    0 0.00000000E+00 0.00000000E+00 -.11922282E+04 0.11922282E+04 0.00000000E+00 0.0000E+00 0.9000E+01
       23  2    1    2    0    0 0.00000000E+00 0.00000000E+00 -.11902692E+04 0.11941873E+04 0.96657056E+02 0.0000E+00 0.0000E+00
      -13  1    3    3    0    0 -.45522275E+02 0.15398468E+02 -.53182700E+03 0.53399377E+03 0.00000000E+00 0.0000E+00 0.9000E+01
       13  1    3    3    0    0 0.45522275E+02 -.15398468E+02 -.65844216E+03 0.66019351E+03 0.00000000E+00 0.0000E+00 0.9000E+01
#aMCatNLO 1  0  0  2  1 0.59590855D+02 0.00000000D+00  -5  5  0 0.00000000D+00 0.00000000D+00 0.00000000D+00 0.00000000D+00 0.00000000D+00
  <mgrwgt>
 0.3827397323D+03    6    2    0
 0.483285280569416D+02 0.000000000000000D+00 0.000000000000000D+00 0.483285280569416D+02
 0.483285280569416D+02 0.000000000000000D+00 0.000000000000000D+00 -.483285280569416D+02
 0.483285280569416D+02 -.455222747596208D+02 0.153984679951672D+02 0.512409096933259D+01
 0.483285280569416D+02 0.455222747596208D+02 -.153984679951672D+02 -.512409096933259D+01
 0.000000000000000D+00 -.000000000000000D+00 0.000000000000000D+00 0.000000000000000D+00
 0.826392988461165D+02 0.000000000000000D+00 0.000000000000000D+00 0.826392988461165D+02
 0.555676302582929D+02 0.000000000000000D+00 0.000000000000000D+00 -.555676302582929D+02
 0.451083760617873D+02 -.447288722466941D+02 0.279951249480145D+01 0.512409096933259D+01
 0.551429886437055D+02 0.464008843640477D+02 -.293504824241802D+02 -.512409096933259D+01
 0.379555643989167D+02 -.167201211735364D+01 0.265509699293788D+02 0.270716685878237D+02
0.204595732922D-01 0.000000000000D+00 0.000000000000D+00 0.427244491402D-01 0.000000000000D+00  5 -2 2 -13 13 21 0 0.30139385D-03 0.18341973D+00 0.23093903D+04 0.93425865D+04 0.93425865D+04 0.12124051D+01  1  2  2  2  5  2        2 0.448631124859D+03
-.113659880325D-02 0.000000000000D+00 -.785701485715D-04 0.427244491402D-01 0.000000000000D+00  5 -2 2 -13 13 21 2 0.30139385D-03 0.18341973D+00 0.23093903D+04 0.93425865D+04 0.93425865D+04 0.12124051D+01  1  2  3  2  5  2        2 -.401743389834D+02
0.102330074409D-02 0.000000000000D+00 0.000000000000D+00 0.427244491402D-01 0.000000000000D+00  5 -2 2 -13 13 21 2 0.30139385D-03 0.18341973D+00 0.23093903D+04 0.93425865D+04 0.93425865D+04 0.12124051D+01  1  2 15  2  5  2        2 0.329831142342D+02
0.182808249833D-02 0.000000000000D+00 0.000000000000D+00 0.427244491402D-01 0.000000000000D+00  5 -2 2 -13 13 21 2 0.30139385D-03 0.36061800D+00 0.39894608D+04 0.10050336D+05 0.10050336D+05 0.12091062D+01  1  2 12  2  5  2        2 0.147517113207D+02
-.228467100731D-02 0.000000000000D+00 0.000000000000D+00 0.427244491402D-01 0.000000000000D+00  5 -2 2 -13 13 21 2 0.30139385D-03 0.18341973D+00 0.23093903D+04 0.93425865D+04 0.93425865D+04 0.12124051D+01  1  2  4  2  5  2        2 -.736397049028D+02
0.133849265235D-03 0.000000000000D+00 0.000000000000D+00 0.427244491402D-01 0.000000000000D+00  5 -2 21 -13 13 -2 2 0.30139385D-03 0.36061800D+00 0.39894608D+04 0.10050336D+05 0.10050336D+05 0.12091062D+01  1  2 12  4  5  2        2 0.187825807513D+00
  </mgrwgt>
  </event>
  <event npLO=' -1 ' npNLO=' 0 '>
  5     66 0.12166989E+02 0.48645396E+02 0.75467711E-02 0.11650263E+00
       -2 -1    0    0    0  501 0.00000000E+00 0.00000000E+00 0.10305778E+02 0.10305778E+02 0.00000000E+00 0.0000E+00 0.9000E+01
        2 -1    0    0  501    0 0.00000000E+00 0.00000000E+00 -.21751601E+03 0.21751601E+03 0.00000000E+00 0.0000E+00 0.9000E+01
       23  2    1    2    0    0 0.00000000E+00 0.00000000E+00 -.20721023E+03 0.22782179E+03 0.94692591E+02 0.0000E+00 0.0000E+00
      -13  1    3    3    0    0 0.16351461E+02 -.33029571E+02 -.32098640E+02 0.48873772E+02 0.00000000E+00 0.0000E+00 0.9000E+01
       13  1    3    3    0    0 -.16351461E+02 0.33029571E+02 -.17511159E+03 0.17894802E+03 0.00000000E+00 0.0000E+00 0.9000E+01
#aMCatNLO 1  0  0  2  1 0.50644762D+02 0.00000000D+00  -5  5  0 0.00000000D+00 0.00000000D+00 0.00000000D+00 0.00000000D+00 0.00000000D+00
  <mgrwgt>
 0.3306255656D+03    6    2    0
 0.473462954777963D+02 0.000000000000000D+00 0.000000000000000D+00 0.473462954777963D+02
 0.473462954777963D+02 0.000000000000000D+00 0.000000000000000D+00 -.473462954777963D+02
 0.473462954777963D+02 0.163514614985869D+02 -.330295711810814D+02 0.297211848674461D+02
 0.473462954777963D+02 -.163514614985869D+02 0.330295711810814D+02 -.297211848674461D+02
 0.000000000000000D+00 0.000000000000000D+00 0.000000000000000D+00 0.000000000000000D+00
 0.721396662548376D+02 0.000000000000000D+00 0.000000000000000D+00 0.721396662548376D+02
 0.595860102243189D+02 0.000000000000000D+00 0.000000000000000D+00 -.595860102243189D+02
 0.555980521776797D+02 0.772912707642792D+01 -.463471160986692D+02 0.297211848674461D+02
 0.437020502977156D+02 -.239774196375238D+02 0.212509698090521D+02 -.297211848674461D+02
 0.324255740037613D+02 0.162482925610959D+02 0.250961462896170D+02 0.125536560305186D+02
0.254548340392D-01 0.000000000000D+00 0.000000000000D+00 0.149853113705D+00 0.000000000000D+00  5 -2 2 -13 13 21 0 0.15855043D-02 0.33464001D-01 0.13583229D+04 0.89666868D+04 0.89666868D+04 0.12142727D+01  1  2  2  2  5  2        2 0.398897111269D+03
-.130627651963D-02 0.000000000000D+00 -.977532651223D-04 0.149853113705D+00 0.000000000000D+00  5 -2 2 -13 13 21 2 0.15855043D-02 0.33464001D-01 0.13583229D+04 0.89666868D+04 0.89666868D+04 0.12142727D+01  1  2  3  2  5  2        2 -.344454342165D+02
0.127105425139D-02 0.000000000000D+00 0.000000000000D+00 0.149853113705D+00 0.000000000000D+00  5 -2 2 -13 13 21 2 0.15855043D-02 0.33464001D-01 0.13583229D+04 0.89666868D+04 0.89666868D+04 0.12142727D+01  1  2 15  2  5  2        2 0.293688661620D+02
0.429769688037D-02 0.000000000000D+00 0.000000000000D+00 0.149853113705D+00 0.000000000000D+00  5 -2 2 -13 13 21 2 0.15855043D-02 0.64168856D-01 0.29660775D+04 0.98605104D+04 0.98605104D+04 0.12099650D+01  1  2 12  2  5  2        2 0.495104539041D+02
-.526472242956D-02 0.000000000000D+00 0.000000000000D+00 0.149853113705D+00 0.000000000000D+00  5 -2 2 -13 13 21 2 0.15855043D-02 0.33464001D-01 0.13583229D+04 0.89666868D+04 0.89666868D+04 0.12142727D+01  1  2  4  2  5  2        2 -.121646206875D+03
0.303702312579D-03 0.000000000000D+00 0.000000000000D+00 0.149853113705D+00 0.000000000000D+00  5 -2 21 -13 13 -2 2 0.15855043D-02 0.64168856D-01 0.29660775D+04 0.98605104D+04 0.98605104D+04 0.12099650D+01  1  2 12  4  5  2        2 0.894077540352D+01
  </mgrwgt>
  </event>
  <event npLO=' -1 ' npNLO=' 0 '>
  5     66 -.12166989E+02 0.85504636E+02 0.75467711E-02 0.11824572E+00
       -2 -1    0    0    0  501 0.00000000E+00 0.00000000E+00 0.32734519E+01 0.32734519E+01 0.00000000E+00 0.0000E+00 0.9000E+01
        2 -1    0    0  501    0 0.00000000E+00 0.00000000E+00 -.61796725E+03 0.61796725E+03 0.00000000E+00 0.0000E+00 0.9000E+01
       23  2    1    2    0    0 0.00000000E+00 0.00000000E+00 -.61469379E+03 0.62124070E+03 0.89953011E+02 0.0000E+00 0.0000E+00
      -11  1    3    3    0    0 0.42124889E+02 0.15618252E+02 -.32191573E+03 0.32503565E+03 0.00000000E+00 0.0000E+00 0.9000E+01
       11  1    3    3    0    0 -.42124889E+02 -.15618252E+02 -.29277806E+03 0.29620504E+03 0.00000000E+00 0.0000E+00 0.9000E+01
#aMCatNLO 1  0  0  1  1 0.12955590D+00 0.00000000D+00  -5  5  0 0.00000000D+00 0.00000000D+00 0.00000000D+00 0.00000000D+00 0.00000000D+00
  <mgrwgt>
 -.8316953480D+03    9    2    0
 0.449765055525869D+02 0.000000000000000D+00 0.000000000000000D+00 0.449765055525869D+02
 0.449765055525869D+02 0.000000000000000D+00 0.000000000000000D+00 -.449765055525869D+02
 0.449765055525869D+02 0.421248885649808D+02 0.156182521505581D+02 -.210950583583356D+01
 0.449765055525869D+02 -.421248885649808D+02 -.156182521505581D+02 0.210950583583356D+01
 0.000000000000000D+00 -.000000000000000D+00 0.000000000000000D+00 0.000000000000000D+00
 0.451454065610158D+02 0.000000000000000D+00 0.000000000000000D+00 0.451454065610158D+02
 0.449985265682336D+02 0.000000000000000D+00 0.000000000000000D+00 -.449985265682336D+02
 0.450156547230665D+02 0.421778471471087D+02 0.155880840807989D+02 -.210950583583356D+01
 0.449374389028410D+02 -.420719760112950D+02 -.156483940000297D+02 0.210950583583356D+01
 0.190839503341900D+00 -.105871135813636D+00 0.603099192307701D-01 0.146879992782174D+00
0.886077113382D-02 0.000000000000D+00 0.000000000000D+00 0.302987127424D+00 0.000000000000D+00  5 -2 2 -11 11 21 0 0.50360798D-03 0.95071884D-01 0.20184360D+04 0.80915442D+04 0.80915442D+04 0.12189831D+01  1  2  2  1  5  1       -2 0.217586742834D+03
-.492264337290D-03 0.000000000000D+00 -.340276942485D-04 0.302987127424D+00 0.000000000000D+00  5 -2 2 -11 11 21 2 0.50360798D-03 0.95071884D-01 0.20184360D+04 0.80915442D+04 0.80915442D+04 0.12189831D+01  1  2  3  1  5  1       -2 -.196859830218D+02
0.511412436584D-03 0.000000000000D+00 0.000000000000D+00 0.302987127424D+00 0.000000000000D+00  5 -2 2 -11 11 21 2 0.50360798D-03 0.95071884D-01 0.20184360D+04 0.80915442D+04 0.80915442D+04 0.12189831D+01  1  2 15  1  5  1       -2 0.186606833495D+02
-.114382532960D+01 0.000000000000D+00 0.000000000000D+00 0.302987127424D+00 0.000000000000D+00  5 -2 2 -11 11 21 2 0.50360798D-03 0.95071884D-01 0.20184360D+04 0.80915442D+04 0.80915442D+04 0.12189831D+01  1  2  4  1  5  1       -2 -.417364943749D+05
-.356341362803D+01 0.000000000000D+00 -.244749121347D+00 0.302987127424D+00 0.000000000000D+00  5 -2 2 -11 11 21 2 0.50574817D-03 0.95071884D-01 0.20184360D+04 0.80915442D+04 0.80915442D+04 0.12189831D+01  1  2  5  1  5  1       -2 -.141607582896D+06
0.356442168514D+01 0.000000000000D+00 0.244746920639D+00 0.302987127424D+00 0.000000000000D+00  5 -2 2 -11 11 21 2 0.50360798D-03 0.95071884D-01 0.20184360D+04 0.80915442D+04 0.80915442D+04 0.12189831D+01  1  2  6  1  5  1       -2 0.142460378891D+06
0.114383424232D+01 0.000000000000D+00 0.000000000000D+00 0.302987127424D+00 0.161738196035D+03  5 -2 2 -11 11 21 2 0.50549919D-03 0.95118432D-01 0.20239176D+04 0.80915591D+04 0.80915591D+04 0.12189830D+01  1  2 11  1  5  1       -2 0.415028505858D+05
-.281379926721D-02 0.000000000000D+00 -.193375454312D-03 0.302987127424D+00 0.000000000000D+00  5 21 2 -11 11 2 2 0.50574817D-03 0.95071884D-01 0.20184360D+04 0.80915442D+04 0.80915442D+04 0.12189831D+01  1  2  5  3  5  1       -2 -.228948832180D+04
0.837355305421D-03 0.000000000000D+00 0.000000000000D+00 0.302987127424D+00 0.113066247718D+00  5 21 2 -11 11 2 2 0.50549919D-03 0.95118432D-01 0.20239176D+04 0.80915591D+04 0.80915591D+04 0.12189830D+01  1  2 11  3  5  1       -2 0.622079324282D+03
  </mgrwgt>
  </event>
  <event npLO=' -1 ' npNLO=' 0 '>
  5     66 -.12166989E+02 0.67163727E+02 0.75467711E-02 0.11797092E+00
       -2 -1    0    0    0  501 0.00000000E+00 0.00000000E+00 0.14923590E+01 0.14923590E+01 0.00000000E+00 0.0000E+00 0.9000E+01
        2 -1    0    0  501    0 0.00000000E+00 0.00000000E+00 -.13974762E+04 0.13974762E+04 0.00000000E+00 0.0000E+00 0.9000E+01
       23  2    1    2    0    0 0.00000000E+00 0.00000000E+00 -.13959838E+04 0.13989685E+04 0.91335341E+02 0.0000E+00 0.0000E+00
      -11  1    3    3    0    0 -.10359873E+02 0.15359384E+01 -.17150308E+02 0.20095252E+02 0.00000000E+00 0.0000E+00 0.9000E+01
       11  1    3    3    0    0 0.10359873E+02 -.15359384E+01 -.13788335E+04 0.13788733E+04 0.00000000E+00 0.0000E+00 0.9000E+01
#aMCatNLO 1  0  0  1  2 0.16776669D+01 0.00000000D+00  -5  5  0 0.00000000D+00 0.00000000D+00 0.00000000D+00 0.00000000D+00 0.00000000D+00
  <mgrwgt>
 -.6029130560D+03   11    2    0
 0.456676702795452D+02 0.000000000000000D+00 0.000000000000000D+00 0.456676702795452D+02
 0.456676702795452D+02 0.000000000000000D+00 0.000000000000000D+00 -.456676702795452D+02
 0.456676702795452D+02 -.103598729384941D+02 0.153593835987339D+01 0.444505346966061D+02
 0.456676702795452D+02 0.103598729384941D+02 -.153593835987339D+01 -.444505346966061D+02
 0.000000000000000D+00 0.000000000000000D+00 0.000000000000000D+00 0.000000000000000D+00
 0.471496762925865D+02 0.000000000000000D+00 0.000000000000000D+00 0.471496762925865D+02
 0.460515338343422D+02 0.000000000000000D+00 0.000000000000000D+00 -.460515338343422D+02
 0.457532428556917D+02 -.108000285547493D+02 0.931976509530303D+00 0.444505346966061D+02
 0.455943054439554D+02 0.992048254314956D+01 -.213885020830785D+01 -.444505346966061D+02
 0.185366182728163D+01 0.879546011599780D+00 0.120687369877755D+01 0.109814245824437D+01
0.150749190691D-01 0.000000000000D+00 0.000000000000D+00 0.145347832733D+01 0.000000000000D+00  5 -2 2 -11 11 21 0 0.22959369D-03 0.21499633D+00 0.10968607D+03 0.83421444D+04 0.83421444D+04 0.12175780D+01  1  2  2  1  5  1       -2 0.368318784198D+03
0.137061818925D-02 0.000000000000D+00 -.578916585429D-04 0.145347832733D+01 0.000000000000D+00  5 -2 2 -11 11 21 2 0.22959369D-03 0.21499633D+00 0.10968607D+03 0.83421444D+04 0.83421444D+04 0.12175780D+01  1  2  3  1  5  1       -2 0.405627548084D+02
0.549130441848D-03 0.000000000000D+00 0.000000000000D+00 0.145347832733D+01 0.000000000000D+00  5 -2 2 -11 11 21 2 0.22959369D-03 0.21499633D+00 0.10968607D+03 0.83421444D+04 0.83421444D+04 0.12175780D+01  1  2 15  1  5  1       -2 0.198901471618D+02
0.127236756045D-04 0.000000000000D+00 0.000000000000D+00 0.145347832733D+01 0.000000000000D+00  5 -2 2 -11 11 21 2 0.23903695D-03 0.21499633D+00 0.12635968D+03 0.83443746D+04 0.83443746D+04 0.12175657D+01  1  2 12  1  5  1       -2 0.436670155911D+00
-.118029101480D+00 0.000000000000D+00 0.000000000000D+00 0.145347832733D+01 0.000000000000D+00  5 -2 2 -11 11 21 2 0.22959369D-03 0.21499633D+00 0.10968607D+03 0.83421444D+04 0.83421444D+04 0.12175780D+01  1  2  4  1  5  1       -2 -.427515216585D+04
-.227789779379D+00 0.000000000000D+00 -.440970217629D-01 0.145347832733D+01 0.000000000000D+00  5 -2 2 -11 11 21 2 0.23916076D-03 0.21499633D+00 0.10968607D+03 0.83421444D+04 0.83421444D+04 0.12175780D+01  1  2  5  1  5  1       -2 -.143628807213D+05
0.229435530104D+00 0.000000000000D+00 0.440602998368D-01 0.145347832733D+01 0.000000000000D+00  5 -2 2 -11 11 21 2 0.22959369D-03 0.21499633D+00 0.10968607D+03 0.83421444D+04 0.83421444D+04 0.12175780D+01  1  2  6  1  5  1       -2 0.152230571384D+05
0.118059172360D+00 0.000000000000D+00 0.000000000000D+00 0.145347832733D+01 0.515491665132D+01  5 -2 2 -11 11 21 2 0.23704446D-03 0.21680350D+00 0.12635968D+03 0.83443746D+04 0.83443746D+04 0.12175657D+01  1  2 11  1  5  1       -2 0.404038013857D+04
0.303058159161D-06 0.000000000000D+00 0.000000000000D+00 0.145347832733D+01 0.000000000000D+00  5 21 2 -11 11 2 2 0.23903695D-03 0.21499633D+00 0.12635968D+03 0.83443746D+04 0.83443746D+04 0.12175657D+01  1  2 12  3  5  1       -2 0.226096783717D+00
-.161549608578D-02 0.000000000000D+00 -.317805339776D-03 0.145347832733D+01 0.000000000000D+00  5 21 2 -11 11 2 2 0.23916076D-03 0.21499633D+00 0.10968607D+03 0.83421444D+04 0.83421444D+04 0.12175780D+01  1  2  5  3  5  1       -2 -.223059086130D+04
0.769507715173D-03 0.000000000000D+00 0.000000000000D+00 0.145347832733D+01 0.296254253404D-01  5 21 2 -11 11 2 2 0.23704446D-03 0.21680350D+00 0.12635968D+03 0.83443746D+04 0.83443746D+04 0.12175657D+01  1  2 11  3  5  1       -2 0.572838962346D+03
  </mgrwgt>
  </event>
  <event npLO=' -1 ' npNLO=' 0 '>
  6     66 0.12166989E+02 0.86371919E+02 0.75467711E-02 0.11887463E+00
       21 -1    0    0  502  501 0.00000000E+00 0.00000000E+00 0.46224602E+01 0.46224602E+01 0.00000000E+00 0.0000E+00 0.9000E+01
        2 -1    0    0  501    0 0.00000000E+00 0.00000000E+00 -.49978765E+03 0.49978765E+03 0.00000000E+00 0.0000E+00 0.9000E+01
       23  2    1    2    0    0 -.76713969E+01 0.51694906E+01 -.44995342E+03 0.45826168E+03 0.86371919E+02 0.0000E+00 0.0000E+00
      -13  1    3    3    0    0 -.46836996E+02 -.24499254E+01 -.25192845E+03 0.25625700E+03 0.00000000E+00 0.0000E+00 0.9000E+01
       13  1    3    3    0    0 0.39165599E+02 0.76194160E+01 -.19802497E+03 0.20200468E+03 0.00000000E+00 0.0000E+00 0.9000E+01
        2  1    1    2  502    0 0.76713969E+01 -.51694906E+01 -.45211765E+02 0.46148430E+02 0.00000000E+00 0.0000E+00 0.9000E+01
#aMCatNLO 2  0  0  1  2 0.12758181D+02 0.00000000D+00  -5  5  0 0.00000000D+00 0.00000000D+00 0.00000000D+00 0.00000000D+00 0.00000000D+00
  <mgrwgt>
 0.4987988804D+02    2    2    0
 0.431859593314095D+02 0.000000000000000D+00 0.000000000000000D+00 0.431859593314095D+02
 0.431859593314095D+02 0.000000000000000D+00 0.000000000000000D+00 -.431859593314095D+02
 0.431859593314095D+02 -.428463995321942D+02 -.513905135141070D+01 -.167430036412334D+01
 0.431859593314095D+02 0.428463995321942D+02 0.513905135141070D+01 0.167430036412334D+01
 0.000000000000000D+00 0.000000000000000D+00 -.000000000000000D+00 0.000000000000000D+00
 0.483295374338314D+02 0.000000000000000D+00 0.000000000000000D+00 0.483295374338314D+02
 0.478019989341342D+02 0.000000000000000D+00 0.000000000000000D+00 -.478019989341342D+02
 0.469309027798921D+02 -.468369962674210D+02 -.244992544212575D+01 -.167430036412334D+01
 0.399349840668868D+02 0.391655993180841D+02 0.761941603854879D+01 0.167430036412334D+01
 0.926564952118657D+01 0.767139694933693D+01 -.516949059642304D+01 0.527538499697163D+00
-.317893177418D-03 0.000000000000D+00 0.000000000000D+00 0.343454165316D-01 0.000000000000D+00  5 21 2 -13 13 2 2 0.78716053D-03 0.69465421D-01 0.23064735D+04 0.75456823D+04 0.75456823D+04 0.12222204D+01  1  2 13  3  5  1       -2 -.174726060053D+03
0.393138755647D-03 0.000000000000D+00 0.000000000000D+00 0.343454165316D-01 0.640117111469D-04  5 21 2 -13 13 2 2 0.71114772D-03 0.76890407D-01 0.23064735D+04 0.75456823D+04 0.75456823D+04 0.12222204D+01  1  2  1  3  5  1       -2 0.224605948091D+03
  </mgrwgt>
  </event>
  <event npLO=' -1 ' npNLO=' 0 '>
  5     66 0.12166989E+02 0.90386188E+02 0.75467711E-02 0.11649476E+00
       -2 -1    0    0    0  501 0.00000000E+00 0.00000000E+00 0.37258102E+02 0.37258102E+02 0.00000000E+00 0.0000E+00 0.9000E+01
        2 -1    0    0  501    0 0.00000000E+00 0.00000000E+00 -.54818030E+02 0.54818030E+02 0.00000000E+00 0.0000E+00 0.9000E+01
       23  2    1    2    0    0 0.00000000E+00 0.00000000E+00 -.17559928E+02 0.92076132E+02 0.90386188E+02 0.0000E+00 0.0000E+00
      -11  1    3    3    0    0 -.41091641E+02 -.18736761E+02 -.70672776E+01 0.45711438E+02 0.00000000E+00 0.0000E+00 0.9000E+01
       11  1    3    3    0    0 0.41091641E+02 0.18736761E+02 -.10492650E+02 0.46364694E+02 0.00000000E+00 0.0000E+00 0.9000E+01
#aMCatNLO 1  0  0  2  1 0.96968924D+02 0.00000000D+00  -5  5  0 0.00000000D+00 0.00000000D+00 0.00000000D+00 0.00000000D+00 0.00000000D+00
  <mgrwgt>
 0.3057520165D+03    3    2    0
 0.451930938995135D+02 0.000000000000000D+00 0.000000000000000D+00 0.451930938995135D+02
 0.451930938995135D+02 0.000000000000000D+00 0.000000000000000D+00 -.451930938995135D+02
 0.451930938995135D+02 -.410916405651467D+02 -.187367607450483D+02 0.168125211014066D+01
 0.451930938995135D+02 0.410916405651467D+02 0.187367607450483D+02 -.168125211014066D+01
 0.000000000000000D+00 -.000000000000000D+00 0.000000000000000D+00 0.000000000000000D+00
 0.111191465808846D+03 0.000000000000000D+00 0.000000000000000D+00 0.111191465808846D+03
 0.565801819239139D+02 0.000000000000000D+00 0.000000000000000D+00 -.565801819239139D+02
 0.493271320712143D+02 -.322581361217001D+02 -.372793777263922D+02 0.168125211014066D+01
 0.500180101227266D+02 0.499897118700796D+02 0.586099458527016D-01 -.168125211014066D+01
 0.684265055388187D+02 -.177315757483795D+02 0.372207677805395D+02 0.546112838849318D+02
0.251993218539D-01 0.000000000000D+00 0.000000000000D+00 0.440368241754D+00 0.000000000000D+00  5 -2 2 -11 11 21 0 0.57320157D-02 0.84335430D-02 0.20395891D+04 0.81696629D+04 0.81696629D+04 0.12185399D+01  1  2  2  2  5  2        2 0.309332801220D+03
-.139996150904D-02 0.000000000000D+00 -.967720310529D-04 0.440368241754D+00 0.000000000000D+00  5 -2 2 -11 11 21 2 0.57320157D-02 0.84335430D-02 0.20395891D+04 0.81696629D+04 0.81696629D+04 0.12185399D+01  1  2  3  2  5  2        2 -.279648681187D+02
0.133779573131D-02 0.000000000000D+00 0.000000000000D+00 0.440368241754D+00 0.000000000000D+00  5 -2 2 -11 11 21 2 0.57320157D-02 0.84335430D-02 0.20395891D+04 0.81696629D+04 0.81696629D+04 0.12185399D+01  1  2 15  2  5  2        2 0.243840834009D+02
  </mgrwgt>
  </event>
  <event npLO=' -1 ' npNLO=' 0 '>
  5     66 0.12166989E+02 0.53869351E+02 0.75467711E-02 0.11572555E+00
       -2 -1    0    0    0  501 0.00000000E+00 0.00000000E+00 0.19031242E+02 0.19031242E+02 0.00000000E+00 0.0000E+00 0.9000E+01
        2 -1    0    0  501    0 0.00000000E+00 0.00000000E+00 -.10727662E+03 0.10727662E+03 0.00000000E+00 0.0000E+00 0.9000E+01
       23  2    1    2    0    0 0.00000000E+00 0.00000000E+00 -.88245376E+02 0.12630786E+03 0.90368297E+02 0.0000E+00 0.0000E+00
      -11  1    3    3    0    0 -.20030217E+02 0.37437067E+02 -.65724457E+02 0.78246073E+02 0.00000000E+00 0.0000E+00 0.9000E+01
       11  1    3    3    0    0 0.20030217E+02 -.37437067E+02 -.22520918E+02 0.48061787E+02 0.00000000E+00 0.0000E+00 0.9000E+01
#aMCatNLO 1  0  0  2  1 0.77345697D+02 0.00000000D+00  -5  5  0 0.00000000D+00 0.00000000D+00 0.00000000D+00 0.00000000D+00 0.00000000D+00
  <mgrwgt>
 0.4058618502D+03    5    2    0
 0.451841484382822D+02 0.000000000000000D+00 0.000000000000000D+00 0.451841484382822D+02
 0.451841484382822D+02 0.000000000000000D+00 0.000000000000000D+00 -.451841484382822D+02
 0.451841484382822D+02 -.200302167654258D+02 0.374370674009973D+02 -.154552150045205D+02
 0.451841484382822D+02 0.200302167654258D+02 -.374370674009973D+02 0.154552150045205D+02
 0.000000000000000D+00 -.000000000000000D+00 -.000000000000000D+00 0.000000000000000D+00
 0.827365095997825D+02 0.000000000000000D+00 0.000000000000000D+00 0.827365095997825D+02
 0.732366329902377D+02 0.000000000000000D+00 0.000000000000000D+00 -.732366329902377D+02
 0.577644984498731D+02 0.944957766315717D-01 0.556584645932462D+02 -.154552150045205D+02
 0.461117269569438D+02 0.378770103284387D+02 -.212781526617122D+02 0.154552150045205D+02
 0.520969171832033D+02 -.379715061050703D+02 -.343803119315340D+02 0.949987660954483D+01
0.282972405223D-01 0.000000000000D+00 0.000000000000D+00 0.452466860344D+00 0.000000000000D+00  5 -2 2 -11 11 21 0 0.29278834D-02 0.16504095D-01 0.18027436D+04 0.81664291D+04 0.81664291D+04 0.12185582D+01  1  2  2  2  5  2        2 0.407538932813D+03
-.156467070406D-02 0.000000000000D+00 -.108668854440D-03 0.452466860344D+00 0.000000000000D+00  5 -2 2 -11 11 21 2 0.29278834D-02 0.16504095D-01 0.18027436D+04 0.81664291D+04 0.81664291D+04 0.12185582D+01  1  2  3  2  5  2        2 -.369719298456D+02
0.149550857375D-02 0.000000000000D+00 0.000000000000D+00 0.452466860344D+00 0.000000000000D+00  5 -2 2 -11 11 21 2 0.29278834D-02 0.16504095D-01 0.18027436D+04 0.81664291D+04 0.81664291D+04 0.12185582D+01  1  2 15  2  5  2        2 0.319820606649D+02
0.361937079523D-03 0.000000000000D+00 0.000000000000D+00 0.452466860344D+00 0.000000000000D+00  5 -2 2 -11 11 21 2 0.29278834D-02 0.48982966D-01 0.56495159D+04 0.10790270D+05 0.10790270D+05 0.12059230D+01  1  2 12  2  5  2        2 0.233229957328D+01
0.447081407286D-04 0.000000000000D+00 0.000000000000D+00 0.452466860344D+00 0.000000000000D+00  5 -2 21 -11 11 -2 2 0.29278834D-02 0.48982966D-01 0.56495159D+04 0.10790270D+05 0.10790270D+05 0.12059230D+01  1  2 12  4  5  2        2 0.980486982408D+00
  </mgrwgt>
  </event>
  <event npLO=' -1 ' npNLO=' 0 '>
  5     66 0.12166989E+02 0.59184241E+02 0.75467711E-02 0.11779701E+00
       -2 -1    0    0    0  501 0.00000000E+00 0.00000000E+00 0.42967268E+01 0.42967268E+01 0.00000000E+00 0.0000E+00 0.9000E+01
        2 -1    0    0  501    0 0.00000000E+00 0.00000000E+00 -.49340546E+03 0.49340546E+03 0.00000000E+00 0.0000E+00 0.9000E+01
       23  2    1    2    0    0 0.00000000E+00 0.00000000E+00 -.48910873E+03 0.49770219E+03 0.92087534E+02 0.0000E+00 0.0000E+00
      -11  1    3    3    0    0 -.29256776E+02 -.19265085E+02 -.40605582E+03 0.40756403E+03 0.00000000E+00 0.0000E+00 0.9000E+01
       11  1    3    3    0    0 0.29256776E+02 0.19265085E+02 -.83052909E+02 0.90138162E+02 0.00000000E+00 0.0000E+00 0.9000E+01
#aMCatNLO 1  0  0  2  1 0.72747351D+01 0.00000000D+00  -5  5  0 0.00000000D+00 0.00000000D+00 0.00000000D+00 0.00000000D+00 0.00000000D+00
  <mgrwgt>
 0.5735813745D+03   11    2    0
 0.460437671008116D+02 0.000000000000000D+00 0.000000000000000D+00 0.460437671008116D+02
 0.460437671008116D+02 0.000000000000000D+00 0.000000000000000D+00 -.460437671008116D+02
 0.460437671008116D+02 -.292567763387808D+02 -.192650850014712D+02 -.298818678630106D+02
 0.460437671008116D+02 0.292567763387808D+02 0.192650850014712D+02 0.298818678630106D+02
 0.000000000000000D+00 0.000000000000000D+00 0.000000000000000D+00 -.000000000000000D+00
 0.485549156901382D+02 0.000000000000000D+00 0.000000000000000D+00 0.485549156901382D+02
 0.491014701038561D+02 0.000000000000000D+00 0.000000000000000D+00 -.491014701038561D+02
 0.481383845401657D+02 -.312517088966314D+02 -.211591287673818D+02 -.298818678630106D+02
 0.441064019808066D+02 0.273472477894414D+02 0.174521261470618D+02 0.298818678630106D+02
 0.541159927302204D+01 0.390446110718993D+01 0.370700262032000D+01 -.546554413717948D+00
0.133649067218D-01 0.000000000000D+00 0.000000000000D+00 0.499260333213D+00 0.000000000000D+00  5 -2 2 -11 11 21 0 0.66103490D-03 0.75908532D-01 0.12271025D+04 0.84801140D+04 0.84801140D+04 0.12168245D+01  1  2  2  2  5  2        2 0.290959222384D+03
-.675021755560D-03 0.000000000000D+00 -.513247608723D-04 0.499260333213D+00 0.000000000000D+00  5 -2 2 -11 11 21 2 0.66103490D-03 0.75908532D-01 0.12271025D+04 0.84801140D+04 0.84801140D+04 0.12168245D+01  1  2  3  2  5  2        2 -.249571773989D+02
0.659606732815D-03 0.000000000000D+00 0.000000000000D+00 0.499260333213D+00 0.000000000000D+00  5 -2 2 -11 11 21 2 0.66103490D-03 0.75908532D-01 0.12271025D+04 0.84801140D+04 0.84801140D+04 0.12168245D+01  1  2 15  2  5  2        2 0.212621498173D+02
0.207838084592D-01 0.000000000000D+00 0.000000000000D+00 0.499260333213D+00 0.000000000000D+00  5 -2 2 -11 11 21 2 0.66103490D-03 0.85364362D-01 0.14275674D+04 0.85091006D+04 0.85091006D+04 0.12166679D+01  1  2 12  2  5  2        2 0.589827811991D+03
-.220942865378D-01 0.000000000000D+00 0.000000000000D+00 0.499260333213D+00 0.000000000000D+00  5 -2 2 -11 11 21 2 0.66103490D-03 0.75908532D-01 0.12271025D+04 0.84801140D+04 0.84801140D+04 0.12168245D+01  1  2  4  2  5  2        2 -.712200174894D+03
-.827882536451D-01 0.000000000000D+00 -.192734987301D-01 0.499260333213D+00 0.000000000000D+00  5 -2 2 -11 11 21 2 0.66103490D-03 0.84632371D-01 0.12271025D+04 0.84801140D+04 0.84801140D+04 0.12168245D+01  1  2  5  2  5  2        2 -.343892255331D+04
0.844979625456D-01 0.000000000000D+00 0.191600097122D-01 0.499260333213D+00 0.000000000000D+00  5 -2 2 -11 11 21 2 0.66103490D-03 0.75908532D-01 0.12271025D+04 0.84801140D+04 0.84801140D+04 0.12168245D+01  1  2  6  2  5  2        2 0.391764870651D+04
0.566012783923D-03 0.000000000000D+00 0.000000000000D+00 0.499260333213D+00 0.136514257566D+00  5 -2 2 -11 11 21 2 0.69708662D-03 0.80949513D-01 0.14275674D+04 0.85091006D+04 0.85091006D+04 0.12166679D+01  1  2 11  2  5  2        2 0.158287789482D+02
0.387137075678D-03 0.000000000000D+00 0.000000000000D+00 0.499260333213D+00 0.000000000000D+00  5 -2 21 -11 11 -2 2 0.66103490D-03 0.85364362D-01 0.14275674D+04 0.85091006D+04 0.85091006D+04 0.12166679D+01  1  2 12  4  5  2        2 0.199685257609D+02
-.137117461320D-02 0.000000000000D+00 -.336527651574D-03 0.499260333213D+00 0.000000000000D+00  5 -2 21 -11 11 -2 2 0.66103490D-03 0.84632371D-01 0.12271025D+04 0.84801140D+04 0.84801140D+04 0.12168245D+01  1  2  5  4  5  2        2 -.106473791876D+03
0.117562043826D-04 0.000000000000D+00 0.000000000000D+00 0.499260333213D+00 0.161993637125D-02  5 -2 21 -11 11 -2 2 0.69708662D-03 0.80949513D-01 0.14275674D+04 0.85091006D+04 0.85091006D+04 0.12166679D+01  1  2 11  4  5  2        2 0.639876555049D+00
  </mgrwgt>
  </event>
  <event npLO=' -1 ' npNLO=' 0 '>
  5     66 0.12166989E+02 0.70314004E+02 0.75467711E-02 0.11787742E+00
       -2 -1    0    0    0  501 0.00000000E+00 0.00000000E+00 0.33859741E+01 0.33859741E+01 0.00000000E+00 0.0000E+00 0.9000E+01
        2 -1    0    0  501    0 0.00000000E+00 0.00000000E+00 -.61404661E+03 0.61404661E+03 0.00000000E+00 0.0000E+00 0.9000E+01
       23  2    1    2    0    0 0.00000000E+00 0.00000000E+00 -.61066064E+03 0.61743259E+03 0.91195305E+02 0.0000E+00 0.0000E+00
      -11  1    3    3    0    0 -.35950189E+02 0.28044700E+02 -.30853908E+03 0.31188986E+03 0.00000000E+00 0.0000E+00 0.9000E+01
       11  1    3    3    0    0 0.35950189E+02 -.28044700E+02 -.30212156E+03 0.30554273E+03 0.00000000E+00 0.0000E+00 0.9000E+01
#aMCatNLO 1  0  0  2  1 0.14315306D+02 0.00000000D+00  -5  5  0 0.00000000D+00 0.00000000D+00 0.00000000D+00 0.00000000D+00 0.00000000D+00
  <mgrwgt>
 0.7508789391D+03    9    2    0
 0.455976524322735D+02 0.000000000000000D+00 0.000000000000000D+00 0.455976524322735D+02
 0.455976524322735D+02 0.000000000000000D+00 0.000000000000000D+00 -.455976524322735D+02
 0.455976524322735D+02 -.359501892099465D+02 0.280446998165764D+02 -.473935967806749D+00
 0.455976524322735D+02 0.359501892099465D+02 -.280446998165764D+02 0.473935967806749D+00
 0.000000000000000D+00 0.000000000000000D+00 -.000000000000000D+00 -.000000000000000D+00
 0.505597553722459D+02 0.000000000000000D+00 0.000000000000000D+00 0.505597553722459D+02
 0.521508319011496D+02 0.000000000000000D+00 0.000000000000000D+00 -.521508319011496D+02
 0.511508392564128D+02 -.395066903303662D+02 0.324869998687837D+02 -.473935967806749D+00
 0.406776535193691D+02 0.327786852730284D+02 -.240832861609875D+02 0.473935967806749D+00
 0.108820944976136D+02 0.672800505733777D+01 -.840371370779612D+01 -.159107652890374D+01
0.169813361758D-01 0.000000000000D+00 0.000000000000D+00 0.644915827053D+00 0.000000000000D+00  5 -2 2 -11 11 21 0 0.52091909D-03 0.94468710D-01 0.20789213D+04 0.83165836D+04 0.83165836D+04 0.12177191D+01  1  2  2  2  5  2        2 0.402004753749D+03
-.943407561973D-03 0.000000000000D+00 -.652128022035D-04 0.644915827053D+00 0.000000000000D+00  5 -2 2 -11 11 21 2 0.52091909D-03 0.94468710D-01 0.20789213D+04 0.83165836D+04 0.83165836D+04 0.12177191D+01  1  2  3  2  5  2        2 -.362909220786D+02
0.847349135330D-03 0.000000000000D+00 0.000000000000D+00 0.644915827053D+00 0.000000000000D+00  5 -2 2 -11 11 21 2 0.52091909D-03 0.94468710D-01 0.20789213D+04 0.83165836D+04 0.83165836D+04 0.12177191D+01  1  2 15  2  5  2        2 0.297451381302D+02
0.149738583439D-01 0.000000000000D+00 0.000000000000D+00 0.644915827053D+00 0.000000000000D+00  5 -2 2 -11 11 21 2 0.52091909D-03 0.11980342D+00 0.26311096D+04 0.84324721D+04 0.84324721D+04 0.12170831D+01  1  2 12  2  5  2        2 0.401330261323D+03
-.154348087225D-01 0.000000000000D+00 0.000000000000D+00 0.644915827053D+00 0.000000000000D+00  5 -2 2 -11 11 21 2 0.52091909D-03 0.94468710D-01 0.20789213D+04 0.83165836D+04 0.83165836D+04 0.12177191D+01  1  2  4  2  5  2        2 -.541819774544D+03
-.454862396392D-01 0.000000000000D+00 -.129885303698D-01 0.644915827053D+00 0.000000000000D+00  5 -2 2 -11 11 21 2 0.52091909D-03 0.11716735D+00 0.20789213D+04 0.83165836D+04 0.83165836D+04 0.12177191D+01  1  2  5  2  5  2        2 -.174667293235D+04
0.474736301508D-01 0.000000000000D+00 0.126931081467D-01 0.644915827053D+00 0.000000000000D+00  5 -2 2 -11 11 21 2 0.52091909D-03 0.94468710D-01 0.20789213D+04 0.83165836D+04 0.83165836D+04 0.12177191D+01  1  2  6  2  5  2        2 0.228425011192D+04
0.487999992081D-03 0.000000000000D+00 0.000000000000D+00 0.644915827053D+00 0.000000000000D+00  5 -2 21 -11 11 -2 2 0.52091909D-03 0.11980342D+00 0.26311096D+04 0.84324721D+04 0.84324721D+04 0.12170831D+01  1  2 12  4  5  2        2 0.148236836234D+02
-.120731954890D-02 0.000000000000D+00 -.393205812093D-03 0.644915827053D+00 0.000000000000D+00  5 -2 21 -11 11 -2 2 0.52091909D-03 0.11716735D+00 0.20789213D+04 0.83165836D+04 0.83165836D+04 0.12177191D+01  1  2  5  4  5  2        2 -.564913806340D+02
  </mgrwgt>
  </event>
  <event npLO=' -1 ' npNLO=' 0 '>
  5     66 0.12166989E+02 0.41472341E+02 0.75467711E-02 0.11782898E+00
       -4 -1    0    0    0  501 0.00000000E+00 0.00000000E+00 0.22806550E+03 0.22806550E+03 0.00000000E+00 0.0000E+00 0.9000E+01
        4 -1    0    0  501    0 0.00000000E+00 0.00000000E+00 -.92937036E+01 0.92937036E+01 0.00000000E+00 0.0000E+00 0.9000E+01
       23  2    1    2    0    0 0.00000000E+00 0.00000000E+00 0.21877180E+03 0.23735921E+03 0.92077645E+02 0.0000E+00 0.0000E+00
      -13  1    3    3    0    0 0.11875504E+02 -.18500474E+02 0.51108445E+01 0.22570243E+02 0.00000000E+00 0.0000E+00 0.9000E+01
       13  1    3    3    0    0 -.11875504E+02 0.18500474E+02 0.21366096E+03 0.21478896E+03 0.00000000E+00 0.0000E+00 0.9000E+01
#aMCatNLO 1  0  0  2  1 0.92624386D+00 0.00000000D+00  -5  5  0 0.00000000D+00 0.00000000D+00 0.00000000D+00 0.00000000D+00 0.00000000D+00
  <mgrwgt>
 0.1094897906D+03    8    2    0
 0.460388226714072D+02 0.000000000000000D+00 0.000000000000000D+00 0.460388226714072D+02
 0.460388226714072D+02 0.000000000000000D+00 0.000000000000000D+00 -.460388226714072D+02
 0.460388226714072D+02 0.118755040967687D+02 -.185004742850948D+02 -.404509338167051D+02
 0.460388226714072D+02 -.118755040967687D+02 0.185004742850948D+02 0.404509338167051D+02
 0.000000000000000D+00 -.000000000000000D+00 -.000000000000000D+00 0.000000000000000D+00
 0.464320613368682D+02 0.000000000000000D+00 0.000000000000000D+00 0.464320613368682D+02
 0.461952614127730D+02 0.000000000000000D+00 0.000000000000000D+00 -.461952614127730D+02
 0.459788683560674D+02 0.119854490737131D+02 -.182791493008441D+02 -.404509338167051D+02
 0.461001052721828D+02 -.117654142630059D+02 0.187220908736908D+02 0.404509338167051D+02
 0.548349121391009D+00 -.220034810707215D+00 -.442941572846642D+00 0.236799924095161D+00
0.300919017291D-01 0.000000000000D+00 0.000000000000D+00 0.614592866308D+00 0.000000000000D+00  5 -4 4 -13 13 21 0 0.35087001D-01 0.14298005D-02 0.48329515D+03 0.84782928D+04 0.84782928D+04 0.12168344D+01  1  2  2  2  5  2        4 0.708285915424D+02
-.561195110246D-03 0.000000000000D+00 -.115560826019D-03 0.614592866308D+00 0.000000000000D+00  5 -4 4 -13 13 21 2 0.35087001D-01 0.14298005D-02 0.48329515D+03 0.84782928D+04 0.84782928D+04 0.12168344D+01  1  2  3  2  5  2        4 -.310957558104D+01
0.107748632505D-02 0.000000000000D+00 0.000000000000D+00 0.614592866308D+00 0.000000000000D+00  5 -4 4 -13 13 21 2 0.35087001D-01 0.14298005D-02 0.48329515D+03 0.84782928D+04 0.84782928D+04 0.12168344D+01  1  2 15  2  5  2        4 0.375520518770D+01
0.244177768296D-07 0.000000000000D+00 0.000000000000D+00 0.614592866308D+00 0.000000000000D+00  5 -4 4 -13 13 21 2 0.35087001D-01 0.14469131D-02 0.49427847D+03 0.84785374D+04 0.84785374D+04 0.12168330D+01  1  2 12  2  5  2        4 0.836249292239D-04
-.200201538059D+00 0.000000000000D+00 0.000000000000D+00 0.614592866308D+00 0.000000000000D+00  5 -4 4 -13 13 21 2 0.35087001D-01 0.14298005D-02 0.48329515D+03 0.84782928D+04 0.84782928D+04 0.12168344D+01  1  2  4  2  5  2        4 -.697733081920D+03
0.200206460508D+00 0.000000000000D+00 0.000000000000D+00 0.614592866308D+00 0.198417605356D+02  5 -4 4 -13 13 21 2 0.35386695D-01 0.14346590D-02 0.49427847D+03 0.84785374D+04 0.84785374D+04 0.12168330D+01  1  2 11  2  5  2        4 0.682455385460D+03
0.302772966249D-08 0.000000000000D+00 0.000000000000D+00 0.614592866308D+00 0.000000000000D+00  5 -4 21 -13 13 -4 2 0.35087001D-01 0.14469131D-02 0.49427847D+03 0.84785374D+04 0.84785374D+04 0.12168330D+01  1  2 12  4  5  2        4 0.256598781599D-03
0.631638707206D-03 0.000000000000D+00 0.000000000000D+00 0.614592866308D+00 0.125950810695D-01  5 -4 21 -13 13 -4 2 0.35386695D-01 0.14346590D-02 0.49427847D+03 0.84785374D+04 0.84785374D+04 0.12168330D+01  1  2 11  4  5  2        4 0.532929256758D+02
  </mgrwgt>
  </event>
  <event npLO=' -1 ' npNLO=' 0 '>
  5     66 0.12166989E+02 0.69201937E+02 0.75467711E-02 0.11791189E+00
       -2 -1    0    0    0  501 0.00000000E+00 0.00000000E+00 0.83881571E+00 0.83881571E+00 0.00000000E+00 0.0000E+00 0.9000E+01
        2 -1    0    0  501    0 0.00000000E+00 0.00000000E+00 -.24634142E+04 0.24634142E+04 0.00000000E+00 0.0000E+00 0.9000E+01
       23  2    1    2    0    0 0.00000000E+00 0.00000000E+00 -.24625754E+04 0.24642530E+04 0.90914256E+02 0.0000E+00 0.0000E+00
      -11  1    3    3    0    0 0.29695351E+02 0.14281646E+02 -.38251211E+03 0.38392876E+03 0.00000000E+00 0.0000E+00 0.9000E+01
       11  1    3    3    0    0 -.29695351E+02 -.14281646E+02 -.20800632E+04 0.20803242E+04 0.00000000E+00 0.0000E+00 0.9000E+01
#aMCatNLO 1  0  0  2  1 0.13360323D+02 0.00000000D+00  -5  5  0 0.00000000D+00 0.00000000D+00 0.00000000D+00 0.00000000D+00 0.00000000D+00
  <mgrwgt>
 0.8740076976D+03    9    2    0
 0.454571281262799D+02 0.000000000000000D+00 0.000000000000000D+00 0.454571281262799D+02
 0.454571281262799D+02 0.000000000000000D+00 0.000000000000000D+00 -.454571281262799D+02
 0.454571281262799D+02 0.296953512291086D+02 0.142816459835687D+02 0.313140735272324D+02
 0.454571281262799D+02 -.296953512291086D+02 -.142816459835687D+02 -.313140735272324D+02
 0.000000000000000D+00 -.000000000000000D+00 0.000000000000000D+00 -.000000000000000D+00
 0.489056540045416D+02 0.000000000000000D+00 0.000000000000000D+00 0.489056540045416D+02
 0.567390728912862D+02 0.000000000000000D+00 0.000000000000000D+00 -.567390728912862D+02
 0.441632819704260D+02 0.299326685956104D+02 0.859416222070546D+01 0.313140735272324D+02
 0.474875198650970D+02 -.294492311871678D+02 -.201800922830845D+02 -.313140735272324D+02
 0.139939250603048D+02 -.483437408442573D+00 0.115859300623790D+02 -.783341888674461D+01
0.261844487970D-01 0.000000000000D+00 0.000000000000D+00 0.100901807238D+01 0.000000000000D+00  5 -2 2 -11 11 21 0 0.12904857D-03 0.37898680D+00 0.10857793D+04 0.82654020D+04 0.82654020D+04 0.12180032D+01  1  2  2  2  5  2        2 0.383345125345D+03
-.127159904350D-02 0.000000000000D+00 -.100555177904D-03 0.100901807238D+01 0.000000000000D+00  5 -2 2 -11 11 21 2 0.12904857D-03 0.37898680D+00 0.10857793D+04 0.82654020D+04 0.82654020D+04 0.12180032D+01  1  2  3  2  5  2        2 -.320510764462D+02
0.117108998475D-02 0.000000000000D+00 0.000000000000D+00 0.100901807238D+01 0.000000000000D+00  5 -2 2 -11 11 21 2 0.12904857D-03 0.37898680D+00 0.10857793D+04 0.82654020D+04 0.82654020D+04 0.12180032D+01  1  2 15  2  5  2        2 0.254351112003D+02
0.254923957451D-01 0.000000000000D+00 0.000000000000D+00 0.100901807238D+01 0.000000000000D+00  5 -2 2 -11 11 21 2 0.12904857D-03 0.50893392D+00 0.15381323D+04 0.83998695D+04 0.83998695D+04 0.12172611D+01  1  2 12  2  5  2        2 0.174869672179D+03
-.273557086566D-01 0.000000000000D+00 0.000000000000D+00 0.100901807238D+01 0.000000000000D+00  5 -2 2 -11 11 21 2 0.12904857D-03 0.37898680D+00 0.10857793D+04 0.82654020D+04 0.82654020D+04 0.12180032D+01  1  2  4  2  5  2        2 -.594143490854D+03
-.433698100228D-01 0.000000000000D+00 -.124287204116D-01 0.100901807238D+01 0.000000000000D+00  5 -2 2 -11 11 21 2 0.12904857D-03 0.48303606D+00 0.10857793D+04 0.82654020D+04 0.82654020D+04 0.12180032D+01  1  2  5  2  5  2        2 -.600448934244D+03
0.453994098548D-01 0.000000000000D+00 0.120717640346D-01 0.100901807238D+01 0.000000000000D+00  5 -2 2 -11 11 21 2 0.12904857D-03 0.37898680D+00 0.10857793D+04 0.82654020D+04 0.82654020D+04 0.12180032D+01  1  2  6  2  5  2        2 0.151822349487D+04
0.973076263078D-03 0.000000000000D+00 0.000000000000D+00 0.100901807238D+01 0.000000000000D+00  5 -2 21 -11 11 -2 2 0.12904857D-03 0.50893392D+00 0.15381323D+04 0.83998695D+04 0.83998695D+04 0.12172611D+01  1  2 12  4  5  2        2 0.575739249452D+00
-.123724583245D-02 0.000000000000D+00 -.411373312035D-03 0.100901807238D+01 0.000000000000D+00  5 -2 21 -11 11 -2 2 0.12904857D-03 0.48303606D+00 0.10857793D+04 0.82654020D+04 0.82654020D+04 0.12180032D+01  1  2  5  4  5  2        2 -.179794373603D+01
  </mgrwgt>
  </event>
  <event npLO=' -1 ' npNLO=' 0 '>
  6     66 -.12166989E+02 0.96922124E+02 0.75467711E-02 0.11647349E+00
       -4 -1    0    0    0  501 0.00000000E+00 0.00000000E+00 0.66939779E+03 0.66939779E+03 0.00000000E+00 0.0000E+00 0.9000E+01
        4 -1    0    0  502    0 0.00000000E+00 0.00000000E+00 -.55537448E+01 0.55537448E+01 0.00000000E+00 0.0000E+00 0.9000E+01
       23  2    1    2    0    0 -.14287579E+02 -.17193982E+02 0.52986447E+03 0.53911967E+03 0.96922124E+02 0.0000E+00 0.0000E+00
      -13  1    3    3    0    0 0.30896699E+01 -.14999544E+02 0.51738919E+03 0.51761579E+03 0.00000000E+00 0.0000E+00 0.9000E+01
       13  1    3    3    0    0 -.17377249E+02 -.21944377E+01 0.12475276E+02 0.21503880E+02 0.00000000E+00 0.0000E+00 0.9000E+01
       21  1    1    2  502  501 0.14287579E+02 0.17193982E+02 0.13397958E+03 0.13583186E+03 0.00000000E+00 0.0000E+00 0.9000E+01
#aMCatNLO 2  0  0  2  1 0.33222698D+02 0.00000000D+00  -5  5  0 0.00000000D+00 0.00000000D+00 0.00000000D+00 0.00000000D+00 0.00000000D+00
  <mgrwgt>
 -.8354285353D+01    2    2    0
 0.484610621833691D+02 0.000000000000000D+00 0.000000000000000D+00 0.484610621833691D+02
 0.484610621833691D+02 0.000000000000000D+00 0.000000000000000D+00 -.484610621833691D+02
 0.484610621833691D+02 0.102070362929602D+02 -.643435131676392D+01 0.469349558558120D+02
 0.484610621833691D+02 -.102070362929602D+02 0.643435131676392D+01 -.469349558558120D+02
 0.000000000000000D+00 0.000000000000000D+00 0.000000000000000D+00 0.000000000000000D+00
 0.622861715911185D+02 0.000000000000000D+00 0.000000000000000D+00 0.622861715911185D+02
 0.596868364985186D+02 0.000000000000000D+00 0.000000000000000D+00 -.596868364985186D+02
 0.493702589649808D+02 0.308966991638803D+01 -.149995442894113D+02 0.469349558558120D+02
 0.500966506870329D+02 -.173772486901938D+02 -.219443770263085D+01 -.469349558558120D+02
 0.225060984376235D+02 0.142875787738058D+02 0.171939819920422D+02 0.259933509259988D+01
-.428555044781D-01 0.000000000000D+00 0.000000000000D+00 0.102237332440D+00 0.000000000000D+00  5 -4 4 -13 13 21 2 0.80125769D-01 0.10981743D-02 0.76135158D+03 0.98936661D+04 0.98936661D+04 0.12098137D+01  1  2 13  2  5  2        4 -.345236291741D+02
0.427625533711D-01 0.000000000000D+00 0.000000000000D+00 0.102237332440D+00 0.164215240372D-02  5 -4 4 -13 13 21 2 0.10298428D+00 0.85442228D-03 0.76135158D+03 0.98936661D+04 0.98936661D+04 0.12098137D+01  1  2  1  2  5  2        4 0.261693438207D+02
  </mgrwgt>
  </event>
  <event npLO=' -1 ' npNLO=' 0 '>
  5     66 0.12166989E+02 0.79376627E+02 0.75467711E-02 0.11480529E+00
       -2 -1    0    0    0  501 0.00000000E+00 0.00000000E+00 0.68698704E+00 0.68698704E+00 0.00000000E+00 0.0000E+00 0.9000E+01
        2 -1    0    0  501    0 0.00000000E+00 0.00000000E+00 -.32612948E+04 0.32612948E+04 0.00000000E+00 0.0000E+00 0.9000E+01
       23  2    1    2    0    0 0.00000000E+00 0.00000000E+00 -.32606078E+04 0.32619818E+04 0.94667149E+02 0.0000E+00 0.0000E+00
      -11  1    3    3    0    0 0.65197619E+01 -.21483862E+02 -.19445885E+03 0.19575062E+03 0.00000000E+00 0.0000E+00 0.9000E+01
       11  1    3    3    0    0 -.65197619E+01 0.21483862E+02 -.30661490E+04 0.30662312E+04 0.00000000E+00 0.0000E+00 0.9000E+01
#aMCatNLO 1  0  0  2  1 0.85173811D+02 0.00000000D+00  -5  5  0 0.00000000D+00 0.00000000D+00 0.00000000D+00 0.00000000D+00 0.00000000D+00
  <mgrwgt>
 0.9134888678D+03    3    2    0
 0.473335744096617D+02 0.000000000000000D+00 0.000000000000000D+00 0.473335744096617D+02
 0.473335744096617D+02 0.000000000000000D+00 0.000000000000000D+00 -.473335744096617D+02
 0.473335744096617D+02 0.651976185907060D+01 -.214838620684657D+02 0.416701768933026D+02
 0.473335744096617D+02 -.651976185907060D+01 0.214838620684657D+02 -.416701768933026D+02
 0.000000000000000D+00 -.000000000000000D+00 -.000000000000000D+00 0.000000000000000D+00
 0.898798722775655D+02 0.000000000000000D+00 0.000000000000000D+00 0.898798722775655D+02
 0.766681632944696D+02 0.000000000000000D+00 0.000000000000000D+00 -.766681632944696D+02
 0.526888539441815D+02 0.308138700948204D+02 -.949826812696313D+01 0.416701768933026D+02
 0.569659007299792D+02 0.188131837579909D+02 0.339819705218338D+02 -.416701768933026D+02
 0.568932808978744D+02 -.496270538528113D+02 -.244837023948707D+02 0.132117089830959D+02
0.139459179928D+00 0.000000000000D+00 0.000000000000D+00 0.197788540102D+00 0.000000000000D+00  5 -2 2 -11 11 21 0 0.10569031D-03 0.50173766D+00 0.50406362D+03 0.89618691D+04 0.89618691D+04 0.12142972D+01  1  2  2  2  5  2        2 0.903148797500D+03
-.250713518839D-02 0.000000000000D+00 -.535559971369D-03 0.197788540102D+00 0.000000000000D+00  5 -2 2 -11 11 21 2 0.10569031D-03 0.50173766D+00 0.50406362D+03 0.89618691D+04 0.89618691D+04 0.12142972D+01  1  2  3  2  5  2        2 -.386594494976D+02
0.513132623562D-02 0.000000000000D+00 0.000000000000D+00 0.197788540102D+00 0.000000000000D+00  5 -2 2 -11 11 21 2 0.10569031D-03 0.50173766D+00 0.50406362D+03 0.89618691D+04 0.89618691D+04 0.12142972D+01  1  2 15  2  5  2        2 0.489995198287D+02
  </mgrwgt>
  </event>
  <event npLO=' -1 ' npNLO=' 0 '>
  5     66 0.12166989E+02 0.92114931E+02 0.75467711E-02 0.11258511E+00
       -2 -1    0    0    0  501 0.00000000E+00 0.00000000E+00 0.26454582E+01 0.26454582E+01 0.00000000E+00 0.0000E+00 0.9000E+01
        2 -1    0    0  501    0 0.00000000E+00 0.00000000E+00 -.80186114E+03 0.80186114E+03 0.00000000E+00 0.0000E+00 0.9000E+01
       23  2    1    2    0    0 0.00000000E+00 0.00000000E+00 -.79921568E+03 0.80450660E+03 0.92114931E+02 0.0000E+00 0.0000E+00
      -11  1    3    3    0    0 0.42297850E+02 -.12941580E+01 -.55838572E+03 0.55998696E+03 0.00000000E+00 0.0000E+00 0.9000E+01
       11  1    3    3    0    0 -.42297850E+02 0.12941580E+01 -.24082996E+03 0.24451964E+03 0.00000000E+00 0.0000E+00 0.9000E+01
#aMCatNLO 1  0  0  1  1 0.13063578D+03 0.00000000D+00  -5  5  0 0.00000000D+00 0.00000000D+00 0.00000000D+00 0.00000000D+00 0.00000000D+00
  <mgrwgt>
 0.4083646203D+03    3    2    0
 0.460574654226035D+02 0.000000000000000D+00 0.000000000000000D+00 0.460574654226035D+02
 0.460574654226035D+02 0.000000000000000D+00 0.000000000000000D+00 -.460574654226035D+02
 0.460574654226035D+02 0.422978504161506D+02 -.129415802695530D+01 -.181798549589519D+02
 0.460574654226035D+02 -.422978504161506D+02 0.129415802695530D+01 0.181798549589519D+02
 0.000000000000000D+00 -.000000000000000D+00 -.000000000000000D+00 -.000000000000000D+00
 0.956910371863032D+02 0.000000000000000D+00 0.000000000000000D+00 0.956910371863032D+02
 0.117650286159146D+03 0.000000000000000D+00 0.000000000000000D+00 -.117650286159146D+03
 0.974905979540064D+02 0.930127315789609D+02 0.228591628744658D+02 -.181798549589519D+02
 0.279362796821098D+02 -.161561951300629D+02 0.137443062781598D+02 0.181798549589519D+02
 0.879144457093334D+02 -.768565364488980D+02 -.366034691526256D+02 -.219592489728432D+02
0.168532510993D-01 0.000000000000D+00 0.000000000000D+00 0.421407513351D+00 0.000000000000D+00  5 -2 2 -11 11 21 0 0.40699357D-03 0.12336325D+00 0.17907830D+04 0.84851605D+04 0.84851605D+04 0.12167972D+01  1  2  2  1  5  1       -2 0.411612173130D+03
-.928127532868D-03 0.000000000000D+00 -.647209217842D-04 0.421407513351D+00 0.000000000000D+00  5 -2 2 -11 11 21 2 0.40699357D-03 0.12336325D+00 0.17907830D+04 0.84851605D+04 0.84851605D+04 0.12167972D+01  1  2  3  1  5  1       -2 -.372029011369D+02
0.939003605028D-03 0.000000000000D+00 0.000000000000D+00 0.421407513351D+00 0.000000000000D+00  5 -2 2 -11 11 21 2 0.40699357D-03 0.12336325D+00 0.17907830D+04 0.84851605D+04 0.84851605D+04 0.12167972D+01  1  2 15  1  5  1       -2 0.339553482883D+02
  </mgrwgt>
  </event>
  <event npLO=' -1 ' npNLO=' 0 '>
  5     66 0.12166989E+02 0.41116406E+02 0.75467711E-02 0.11802545E+00
       -2 -1    0    0    0  501 0.00000000E+00 0.00000000E+00 0.11945374E+01 0.11945374E+01 0.00000000E+00 0.0000E+00 0.9000E+01
        2 -1    0    0  501    0 0.00000000E+00 0.00000000E+00 -.17222627E+04 0.17222627E+04 0.00000000E+00 0.0000E+00 0.9000E+01
       23  2    1    2    0    0 0.00000000E+00 0.00000000E+00 -.17210681E+04 0.17234572E+04 0.90715096E+02 0.0000E+00 0.0000E+00
      -13  1    3    3    0    0 -.31908451E+02 0.29526024E+02 -.11063229E+04 0.11071767E+04 0.00000000E+00 0.0000E+00 0.9000E+01
       13  1    3    3    0    0 0.31908451E+02 -.29526024E+02 -.61474523E+03 0.61628048E+03 0.00000000E+00 0.0000E+00 0.9000E+01
#aMCatNLO 1  0  0  1  2 0.84739989D+01 0.00000000D+00  -5  5  0 0.00000000D+00 0.00000000D+00 0.00000000D+00 0.00000000D+00 0.00000000D+00
  <mgrwgt>
 0.2214034356D+03   11    2    0
 0.453575481225718D+02 0.000000000000000D+00 0.000000000000000D+00 0.453575481225718D+02
 0.453575481225718D+02 0.000000000000000D+00 0.000000000000000D+00 -.453575481225718D+02
 0.453575481225718D+02 -.319084509115561D+02 0.295260237574205D+02 -.129372274151949D+02
 0.453575481225718D+02 0.319084509115561D+02 -.295260237574205D+02 0.129372274151949D+02
 0.000000000000000D+00 -.000000000000000D+00 -.000000000000000D+00 0.000000000000000D+00
 0.586242303112798D+02 0.000000000000000D+00 0.000000000000000D+00 0.586242303112798D+02
 0.467614931652981D+02 0.000000000000000D+00 0.000000000000000D+00 -.467614931652981D+02
 0.443519322039877D+02 -.284584983813208D+02 0.314616577267475D+02 -.129372274151949D+02
 0.467166406237103D+02 0.354493429028851D+02 -.275393671990862D+02 0.129372274151949D+02
 0.143171506488798D+02 -.699084452156430D+01 -.392229052766132D+01 0.118627371459817D+02
0.170949922290D-01 0.000000000000D+00 0.000000000000D+00 0.557451458563D+00 0.000000000000D+00  5 -2 2 -13 13 21 0 0.18377498D-03 0.26496349D+00 0.18899353D+04 0.82292287D+04 0.82292287D+04 0.12182052D+01  1  2  2  1  5  1       -2 0.382818470558D+03
-.947643165700D-03 0.000000000000D+00 -.656492713740D-04 0.557451458563D+00 0.000000000000D+00  5 -2 2 -13 13 21 2 0.18377498D-03 0.26496349D+00 0.18899353D+04 0.82292287D+04 0.82292287D+04 0.12182052D+01  1  2  3  1  5  1       -2 -.347022898429D+02
0.880689292468D-03 0.000000000000D+00 0.000000000000D+00 0.557451458563D+00 0.000000000000D+00  5 -2 2 -13 13 21 2 0.18377498D-03 0.26496349D+00 0.18899353D+04 0.82292287D+04 0.82292287D+04 0.12182052D+01  1  2 15  1  5  1       -2 0.292676305944D+02
0.392639624705D-01 0.000000000000D+00 0.000000000000D+00 0.557451458563D+00 0.000000000000D+00  5 -2 2 -13 13 21 2 0.24487970D-03 0.26496349D+00 0.22718899D+04 0.82934850D+04 0.82934850D+04 0.12178471D+01  1  2 12  1  5  1       -2 0.889107541462D+03
-.405535016783D-01 0.000000000000D+00 0.000000000000D+00 0.557451458563D+00 0.000000000000D+00  5 -2 2 -13 13 21 2 0.18377498D-03 0.26496349D+00 0.18899353D+04 0.82292287D+04 0.82292287D+04 0.12182052D+01  1  2  4  1  5  1       -2 -.134769993978D+04
-.530084473965D-01 0.000000000000D+00 -.827693025890D-02 0.557451458563D+00 0.000000000000D+00  5 -2 2 -13 13 21 2 0.24559492D-03 0.26496349D+00 0.18899353D+04 0.82292287D+04 0.82292287D+04 0.12182052D+01  1  2  5  1  5  1       -2 -.147054710250D+04
0.534804982801D-01 0.000000000000D+00 0.794074205570D-02 0.557451458563D+00 0.000000000000D+00  5 -2 2 -13 13 21 2 0.18377498D-03 0.26496349D+00 0.18899353D+04 0.82292287D+04 0.82292287D+04 0.12182052D+01  1  2  6  1  5  1       -2 0.216552254586D+04
0.560618844931D-04 0.000000000000D+00 0.000000000000D+00 0.557451458563D+00 0.708243416601D-01  5 -2 2 -13 13 21 2 0.23752754D-03 0.27316486D+00 0.22718899D+04 0.82934850D+04 0.82934850D+04 0.12178471D+01  1  2 11  1  5  1       -2 0.124169610030D+01
0.147007078717D-02 0.000000000000D+00 0.000000000000D+00 0.557451458563D+00 0.000000000000D+00  5 21 2 -13 13 2 2 0.24487970D-03 0.26496349D+00 0.22718899D+04 0.82934850D+04 0.82934850D+04 0.12178471D+01  1  2 12  3  5  1       -2 0.722285844610D+03
-.182327450829D-02 0.000000000000D+00 -.312172959250D-03 0.557451458563D+00 0.000000000000D+00  5 21 2 -13 13 2 2 0.24559492D-03 0.26496349D+00 0.18899353D+04 0.82292287D+04 0.82292287D+04 0.12182052D+01  1  2  5  3  5  1       -2 -.111690754536D+04
0.211057330581D-05 0.000000000000D+00 0.000000000000D+00 0.557451458563D+00 0.256305962061D-02  5 21 2 -13 13 2 2 0.23752754D-03 0.27316486D+00 0.22718899D+04 0.82934850D+04 0.82934850D+04 0.12178471D+01  1  2 11  3  5  1       -2 0.101658390934D+01
  </mgrwgt>
  </event>
  <event npLO=' -1 ' npNLO=' 0 '>
  5     66 0.12166989E+02 0.39720303E+02 0.75467711E-02 0.11760728E+00
       -2 -1    0    0    0  501 0.00000000E+00 0.00000000E+00 0.22399785E+01 0.22399785E+01 0.00000000E+00 0.0000E+00 0.9000E+01
        2 -1    0    0  501    0 0.00000000E+00 0.00000000E+00 -.93844086E+03 0.93844086E+03 0.00000000E+00 0.0000E+00 0.9000E+01
       23  2    1    2    0    0 0.00000000E+00 0.00000000E+00 -.93620088E+03 0.94068084E+03 0.91697051E+02 0.0000E+00 0.0000E+00
      -13  1    3    3    0    0 -.39304714E+02 0.13642542E+02 -.27047768E+03 0.27365883E+03 0.00000000E+00 0.0000E+00 0.9000E+01
       13  1    3    3    0    0 0.39304714E+02 -.13642542E+02 -.66572321E+03 0.66702201E+03 0.00000000E+00 0.0000E+00 0.9000E+01
#aMCatNLO 1  0  0  1  2 0.23528352D+02 0.00000000D+00  -5  5  0 0.00000000D+00 0.00000000D+00 0.00000000D+00 0.00000000D+00 0.00000000D+00
  <mgrwgt>
 0.4407150559D+03    9    2    0
 0.458485257055643D+02 0.000000000000000D+00 0.000000000000000D+00 0.458485257055643D+02
 0.458485257055643D+02 0.000000000000000D+00 0.000000000000000D+00 -.458485257055643D+02
 0.458485257055643D+02 -.393047140020296D+02 0.136425423977860D+02 0.192641585208661D+02
 0.458485257055643D+02 0.393047140020296D+02 -.136425423977860D+02 -.192641585208661D+02
 0.000000000000000D+00 -.000000000000000D+00 -.000000000000000D+00 0.000000000000000D+00
 0.553487876927535D+02 0.000000000000000D+00 0.000000000000000D+00 0.553487876927535D+02
 0.547733732734151D+02 0.000000000000000D+00 0.000000000000000D+00 -.547733732734151D+02
 0.434702162943289D+02 -.337025613203755D+02 0.195624451847158D+02 0.192641585208661D+02
 0.497667320702631D+02 0.453017898761673D+02 -.730531665650985D+01 -.192641585208661D+02
 0.168852126015766D+02 -.115992285557918D+02 -.122571285282060D+02 0.575414419338356D+00
0.164088025177D-01 0.000000000000D+00 0.000000000000D+00 0.752113134344D+00 0.000000000000D+00  5 -2 2 -13 13 21 0 0.34461207D-03 0.14437552D+00 0.17309795D+04 0.84083492D+04 0.84083492D+04 0.12172147D+01  1  2  2  1  5  1       -2 0.413371454144D+03
-.901145277827D-03 0.000000000000D+00 -.630141222050D-04 0.752113134344D+00 0.000000000000D+00  5 -2 2 -13 13 21 2 0.34461207D-03 0.14437552D+00 0.17309795D+04 0.84083492D+04 0.84083492D+04 0.12172147D+01  1  2  3  1  5  1       -2 -.373525179927D+02
0.765412284515D-03 0.000000000000D+00 0.000000000000D+00 0.752113134344D+00 0.000000000000D+00  5 -2 2 -13 13 21 2 0.34461207D-03 0.14437552D+00 0.17309795D+04 0.84083492D+04 0.84083492D+04 0.12172147D+01  1  2 15  1  5  1       -2 0.285688929908D+02
0.648994342296D-02 0.000000000000D+00 0.000000000000D+00 0.752113134344D+00 0.000000000000D+00  5 -2 2 -13 13 21 2 0.49700108D-03 0.14437552D+00 0.25873011D+04 0.86931285D+04 0.86931285D+04 0.12156877D+01  1  2 12  1  5  1       -2 0.147682548433D+03
-.640577469259D-02 0.000000000000D+00 0.000000000000D+00 0.752113134344D+00 0.000000000000D+00  5 -2 2 -13 13 21 2 0.34461207D-03 0.14437552D+00 0.17309795D+04 0.84083492D+04 0.84083492D+04 0.12172147D+01  1  2  4  1  5  1       -2 -.239094531690D+03
-.133143900066D-01 0.000000000000D+00 -.657129719510D-02 0.752113134344D+00 0.000000000000D+00  5 -2 2 -13 13 21 2 0.50138306D-03 0.14437552D+00 0.17309795D+04 0.84083492D+04 0.84083492D+04 0.12172147D+01  1  2  5  1  5  1       -2 -.533086636848D+03
0.151379954888D-01 0.000000000000D+00 0.613496866413D-02 0.752113134344D+00 0.000000000000D+00  5 -2 2 -13 13 21 2 0.34461207D-03 0.14437552D+00 0.17309795D+04 0.84083492D+04 0.84083492D+04 0.12172147D+01  1  2  6  1  5  1       -2 0.926945479572D+03
0.289661087004D-03 0.000000000000D+00 0.000000000000D+00 0.752113134344D+00 0.000000000000D+00  5 21 2 -13 13 2 2 0.49700108D-03 0.14437552D+00 0.25873011D+04 0.86931285D+04 0.86931285D+04 0.12156877D+01  1  2 12  3  5  1       -2 0.135249095010D+03
-.399435819861D-03 0.000000000000D+00 -.298373761297D-03 0.752113134344D+00 0.000000000000D+00  5 21 2 -13 13 2 2 0.50138306D-03 0.14437552D+00 0.17309795D+04 0.84083492D+04 0.84083492D+04 0.12172147D+01  1  2  5  3  5  1       -2 -.401568727737D+03
  </mgrwgt>
  </event>
  <event npLO=' -1 ' npNLO=' 0 '>
  5     66 0.12166989E+02 0.34915381E+02 0.75467711E-02 0.11794965E+00
       -2 -1    0    0    0  501 0.00000000E+00 0.00000000E+00 0.34220333E+01 0.34220333E+01 0.00000000E+00 0.0000E+00 0.9000E+01
        2 -1    0    0  501    0 0.00000000E+00 0.00000000E+00 -.61094404E+03 0.61094404E+03 0.00000000E+00 0.0000E+00 0.9000E+01
       23  2    1    2    0    0 0.00000000E+00 0.00000000E+00 -.60752201E+03 0.61436608E+03 0.91447709E+02 0.0000E+00 0.0000E+00
      -13  1    3    3    0    0 -.19903669E+02 0.35095670E+02 -.44829007E+03 0.45010204E+03 0.00000000E+00 0.0000E+00 0.9000E+01
       13  1    3    3    0    0 0.19903669E+02 -.35095670E+02 -.15923194E+03 0.16426404E+03 0.00000000E+00 0.0000E+00 0.9000E+01
#aMCatNLO 1  0  0  2  1 0.13744480D+01 0.00000000D+00  -5  5  0 0.00000000D+00 0.00000000D+00 0.00000000D+00 0.00000000D+00 0.00000000D+00
  <mgrwgt>
 0.6619830767D+03   11    2    0
 0.457238545186752D+02 0.000000000000000D+00 0.000000000000000D+00 0.457238545186752D+02
 0.457238545186752D+02 0.000000000000000D+00 0.000000000000000D+00 -.457238545186752D+02
 0.457238545186752D+02 -.199036690939027D+02 0.350956702570816D+02 -.215129904441851D+02
 0.457238545186752D+02 0.199036690939027D+02 -.350956702570816D+02 0.215129904441851D+02
 0.000000000000000D+00 -.000000000000000D+00 0.000000000000000D+00 -.000000000000000D+00
 0.459763516488073D+02 0.000000000000000D+00 0.000000000000000D+00 0.459763516488073D+02
 0.473768858076123D+02 0.000000000000000D+00 0.000000000000000D+00 -.473768858076123D+02
 0.451681324411692D+02 -.195262816020047D+02 0.345843282018115D+02 -.215129904441851D+02
 0.462885186675619D+02 0.202857084782510D+02 -.356133154047899D+02 0.215129904441851D+02
 0.189658634768849D+01 -.759426876246333D+00 0.102898720297836D+01 -.140053415880508D+01
0.119840936976D-01 0.000000000000D+00 0.000000000000D+00 0.664423826823D+00 0.000000000000D+00  5 -2 2 -13 13 21 0 0.52646666D-03 0.93991391D-01 0.16278621D+04 0.83626835D+04 0.83626835D+04 0.12174650D+01  1  2  2  2  5  2        2 0.281349204851D+03
-.653112611745D-03 0.000000000000D+00 -.460220752832D-04 0.664423826823D+00 0.000000000000D+00  5 -2 2 -13 13 21 2 0.52646666D-03 0.93991391D-01 0.16278621D+04 0.83626835D+04 0.83626835D+04 0.12174650D+01  1  2  3  2  5  2        2 -.253477980996D+02
0.662990802976D-03 0.000000000000D+00 0.000000000000D+00 0.664423826823D+00 0.000000000000D+00  5 -2 2 -13 13 21 2 0.52646666D-03 0.93991391D-01 0.16278621D+04 0.83626835D+04 0.83626835D+04 0.12174650D+01  1  2 15  2  5  2        2 0.230707091618D+02
0.558087697177D-05 0.000000000000D+00 0.000000000000D+00 0.664423826823D+00 0.000000000000D+00  5 -2 2 -13 13 21 2 0.52646666D-03 0.97927220D-01 0.16801946D+04 0.83643190D+04 0.83643190D+04 0.12174560D+01  1  2 12  2  5  2        2 0.185556885319D+00
-.184726244675D+00 0.000000000000D+00 0.000000000000D+00 0.664423826823D+00 0.000000000000D+00  5 -2 2 -13 13 21 2 0.52646666D-03 0.93991391D-01 0.16278621D+04 0.83626835D+04 0.83626835D+04 0.12174650D+01  1  2  4  2  5  2        2 -.642809137975D+04
-.422935905001D+00 0.000000000000D+00 -.455917947318D-01 0.664423826823D+00 0.000000000000D+00  5 -2 2 -13 13 21 2 0.52646666D-03 0.97715550D-01 0.16278621D+04 0.83626835D+04 0.83626835D+04 0.12174650D+01  1  2  5  2  5  2        2 -.165827335243D+05
0.424421428256D+00 0.000000000000D+00 0.455573966985D-01 0.664423826823D+00 0.000000000000D+00  5 -2 2 -13 13 21 2 0.52646666D-03 0.93991391D-01 0.16278621D+04 0.83626835D+04 0.83626835D+04 0.12174650D+01  1  2  6  2  5  2        2 0.173633555930D+05
0.184899237775D+00 0.000000000000D+00 0.000000000000D+00 0.664423826823D+00 0.321446763159D+01  5 -2 2 -13 13 21 2 0.52937393D-03 0.97389414D-01 0.16801946D+04 0.83643190D+04 0.83643190D+04 0.12174560D+01  1  2 11  2  5  2        2 0.613944571065D+04
0.129873594426D-06 0.000000000000D+00 0.000000000000D+00 0.664423826823D+00 0.000000000000D+00  5 -2 21 -13 13 -2 2 0.52646666D-03 0.97927220D-01 0.16801946D+04 0.83643190D+04 0.83643190D+04 0.12174560D+01  1  2 12  4  5  2        2 0.653018515262D-02
-.288492069117D-02 0.000000000000D+00 -.313639242300D-03 0.664423826823D+00 0.000000000000D+00  5 -2 21 -13 13 -2 2 0.52646666D-03 0.97715550D-01 0.16278621D+04 0.83626835D+04 0.83626835D+04 0.12174650D+01  1  2  5  4  5  2        2 -.171784601936D+03
0.123591496988D-02 0.000000000000D+00 0.000000000000D+00 0.664423826823D+00 0.202502080184D-01  5 -2 21 -13 13 -2 2 0.52937393D-03 0.97389414D-01 0.16801946D+04 0.83643190D+04 0.83643190D+04 0.12174560D+01  1  2 11  4  5  2        2 0.625270760739D+02
  </mgrwgt>
  </event>
  <event npLO=' -1 ' npNLO=' 0 '>
  6     66 0.12166989E+02 0.91305017E+02 0.75467711E-02 0.11794384E+00
       -2 -1    0    0    0  501 0.00000000E+00 0.00000000E+00 0.30334302E+01 0.30334302E+01 0.00000000E+00 0.0000E+00 0.9000E+01
        2 -1    0    0  502    0 0.00000000E+00 0.00000000E+00 -.81245073E+03 0.81245073E+03 0.00000000E+00 0.0000E+00 0.9000E+01
       23  2    1    2    0    0 0.31445469E+01 -.48259546E+01 -.70546074E+03 0.71136815E+03 0.91305017E+02 0.0000E+00 0.0000E+00
      -11  1    3    3    0    0 -.41217385E+01 -.46783725E+02 -.44203208E+03 0.44452004E+03 0.00000000E+00 0.0000E+00 0.9000E+01
       11  1    3    3    0    0 0.72662854E+01 0.41957770E+02 -.26342866E+03 0.26684811E+03 0.00000000E+00 0.0000E+00 0.9000E+01
       21  1    1    2  502  501 -.31445469E+01 0.48259546E+01 -.10395655E+03 0.10411601E+03 0.00000000E+00 0.0000E+00 0.9000E+01
#aMCatNLO 2  0  0  2  1 0.63235915D+01 0.00000000D+00  -5  5  0 0.00000000D+00 0.00000000D+00 0.00000000D+00 0.00000000D+00 0.00000000D+00
  <mgrwgt>
 0.1077076006D+03    2    2    0
 0.456525083987838D+02 0.000000000000000D+00 0.000000000000000D+00 0.456525083987838D+02
 0.456525083987838D+02 0.000000000000000D+00 0.000000000000000D+00 -.456525083987838D+02
 0.456525083987838D+02 -.573090983924618D+01 -.443141198367074D+02 -.935772293955069D+01
 0.456525083987838D+02 0.573090983924618D+01 0.443141198367074D+02 0.935772293955069D+01
 0.000000000000000D+00 -.000000000000000D+00 0.000000000000000D+00 -.000000000000000D+00
 0.469779745695777D+02 0.000000000000000D+00 0.000000000000000D+00 0.469779745695777D+02
 0.524610229951841D+02 0.000000000000000D+00 0.000000000000000D+00 -.524610229951841D+02
 0.478881257632081D+02 -.412173846241809D+01 -.467837245476123D+02 -.935772293955069D+01
 0.435983984105779D+02 0.726628541030396D+01 0.419577699799465D+02 0.935772293955069D+01
 0.795247339097576D+01 -.314454694788586D+01 0.482595456766588D+01 -.548304842560633D+01
-.379802584383D-01 0.000000000000D+00 0.000000000000D+00 0.628928527142D+00 0.000000000000D+00  5 -2 2 -11 11 21 2 0.45351433D-03 0.12862143D+00 0.22708698D+04 0.83697841D+04 0.83697841D+04 0.12174260D+01  1  2 13  2  5  2        2 -.112878510126D+04
0.417900890600D-01 0.000000000000D+00 0.000000000000D+00 0.628928527142D+00 0.151621846247D+00  5 -2 2 -11 11 21 2 0.46668158D-03 0.12499242D+00 0.22708698D+04 0.83697841D+04 0.83697841D+04 0.12174260D+01  1  2  1  2  5  2        2 0.123649270189D+04
  </mgrwgt>
  </event>
  <event npLO=' -1 ' npNLO=' 0 '>
  6     66 0.12166989E+02 0.90586511E+02 0.75467711E-02 0.11561170E+00
       -2 -1    0    0    0  501 0.00000000E+00 0.00000000E+00 0.12433604E+02 0.12433604E+02 0.00000000E+00 0.0000E+00 0.9000E+01
        2 -1    0    0  502    0 0.00000000E+00 0.00000000E+00 -.54351991E+03 0.54351991E+03 0.00000000E+00 0.0000E+00 0.9000E+01
       23  2    1    2    0    0 0.51970429E+02 -.52852964E+01 -.26693398E+03 0.28668542E+03 0.90586511E+02 0.0000E+00 0.0000E+00
      -13  1    3    3    0    0 0.37699904E+02 -.91192305E+01 -.26898505E+03 0.27176718E+03 0.00000000E+00 0.0000E+00 0.9000E+01
       13  1    3    3    0    0 0.14270526E+02 0.38339341E+01 0.20510641E+01 0.14918238E+02 0.00000000E+00 0.0000E+00 0.9000E+01
       21  1    1    2  502  501 -.51970429E+02 0.52852964E+01 -.26415232E+03 0.26926810E+03 0.00000000E+00 0.0000E+00 0.9000E+01
#aMCatNLO 2  0  0  2  1 0.62232636D+02 0.00000000D+00  -5  5  0 0.00000000D+00 0.00000000D+00 0.00000000D+00 0.00000000D+00 0.00000000D+00
  <mgrwgt>
 0.4960225342D+02    2    2    0
 0.452932555575956D+02 0.000000000000000D+00 0.000000000000000D+00 0.452932555575956D+02
 0.452932555575956D+02 0.000000000000000D+00 0.000000000000000D+00 -.452932555575956D+02
 0.452932555575956D+02 0.100770699234396D+02 -.631003949391164D+01 -.437048631430079D+02
 0.452932555575956D+02 -.100770699234396D+02 0.631003949391164D+01 0.437048631430079D+02
 0.000000000000000D+00 -.000000000000000D+00 0.000000000000000D+00 -.000000000000000D+00
 0.658268999887548D+02 0.000000000000000D+00 0.000000000000000D+00 0.658268999887548D+02
 0.102661853406231D+03 0.000000000000000D+00 0.000000000000000D+00 -.102661853406231D+03
 0.584342209112540D+02 0.376999037913127D+02 -.911923052027689D+01 -.437048631430079D+02
 0.461352578026886D+02 0.142705255383683D+02 0.383393414526993D+01 0.437048631430079D+02
 0.639192746810435D+02 -.519704293296810D+02 0.528529637500696D+01 -.368349534174764D+02
-.327553357718D-02 0.000000000000D+00 0.000000000000D+00 0.869517131774D+00 0.000000000000D+00  5 -2 2 -13 13 21 2 0.13161756D-02 0.12152677D+00 0.27985269D+04 0.10934776D+05 0.10934776D+05 0.12053296D+01  1  2 13  2  5  2        2 -.240589329919D+02
0.111037629067D-01 0.000000000000D+00 0.000000000000D+00 0.869517131774D+00 0.306986536045D-02  5 -2 2 -13 13 21 2 0.19128622D-02 0.83618448D-01 0.27985269D+04 0.10934776D+05 0.10934776D+05 0.12053296D+01  1  2  1  2  5  2        2 0.736611864090D+02
  </mgrwgt>
  </event>
  <event npLO=' -1 ' npNLO=' 0 '>
  5     66 0.12166989E+02 0.59144090E+02 0.75467711E-02 0.11699549E+00
       -2 -1    0    0    0  501 0.00000000E+00 0.00000000E+00 0.13059057E+02 0.13059057E+02 0.00000000E+00 0.0000E+00 0.9000E+01
        2 -1    0    0  501    0 0.00000000E+00 0.00000000E+00 -.15202389E+03 0.15202389E+03 0.00000000E+00 0.0000E+00 0.9000E+01
       23  2    1    2    0    0 0.00000000E+00 0.00000000E+00 -.13896483E+03 0.16508295E+03 0.89113156E+02 0.0000E+00 0.0000E+00
      -13  1    3    3    0    0 0.14869948E+02 0.43496125E+01 -.14687329E+03 0.14768817E+03 0.00000000E+00 0.0000E+00 0.9000E+01
       13  1    3    3    0    0 -.14869948E+02 -.43496125E+01 0.79084534E+01 0.17394773E+02 0.00000000E+00 0.0000E+00 0.9000E+01
#aMCatNLO 1  0  0  1  2 0.40391564D+02 0.00000000D+00  -5  5  0 0.00000000D+00 0.00000000D+00 0.00000000D+00 0.00000000D+00 0.00000000D+00
  <mgrwgt>
 0.3378001873D+03    7    2    0
 0.445565778271997D+02 0.000000000000000D+00 0.000000000000000D+00 0.445565778271997D+02
 0.445565778271997D+02 0.000000000000000D+00 0.000000000000000D+00 -.445565778271997D+02
 0.445565778271997D+02 0.148699480547818D+02 0.434961251831711D+01 -.417762389817453D+02
 0.445565778271997D+02 -.148699480547818D+02 -.434961251831711D+01 0.417762389817453D+02
 0.000000000000000D+00 0.000000000000000D+00 -.000000000000000D+00 0.000000000000000D+00
 0.110051267840927D+03 0.000000000000000D+00 0.000000000000000D+00 0.110051267840927D+03
 0.538402291129450D+02 0.000000000000000D+00 0.000000000000000D+00 -.538402291129450D+02
 0.448284327938129D+02 0.148602110941270D+01 0.161903052643205D+02 -.417762389817453D+02
 0.517046302317000D+02 -.292834718367036D+02 0.840195936231092D+01 0.417762389817453D+02
 0.673584339283589D+02 0.277974507272908D+02 -.245922646266315D+02 0.562110387279818D+02
0.232124664129D-01 0.000000000000D+00 0.000000000000D+00 0.288092615907D+00 0.000000000000D+00  5 -2 2 -13 13 21 0 0.20090857D-02 0.23388291D-01 0.24003448D+03 0.79411545D+04 0.79411545D+04 0.12198499D+01  1  2  2  1  5  1       -2 0.382599236793D+03
0.460108753550D-03 0.000000000000D+00 -.891419830081D-04 0.288092615907D+00 0.000000000000D+00  5 -2 2 -13 13 21 2 0.20090857D-02 0.23388291D-01 0.24003448D+03 0.79411545D+04 0.79411545D+04 0.12198499D+01  1  2  3  1  5  1       -2 0.363478244361D+01
0.787927478602D-03 0.000000000000D+00 0.000000000000D+00 0.288092615907D+00 0.000000000000D+00  5 -2 2 -13 13 21 2 0.20090857D-02 0.23388291D-01 0.24003448D+03 0.79411545D+04 0.79411545D+04 0.12198499D+01  1  2 15  1  5  1       -2 0.193251047088D+02
0.156644289372D-01 0.000000000000D+00 0.000000000000D+00 0.288092615907D+00 0.000000000000D+00  5 -2 2 -13 13 21 2 0.59962089D-02 0.23388291D-01 0.17571908D+04 0.93186323D+04 0.93186323D+04 0.12125216D+01  1  2 12  1  5  1       -2 0.798901663051D+02
0.175462732520D-02 0.000000000000D+00 -.675496468306D-02 0.288092615907D+00 0.000000000000D+00  5 -2 2 -13 13 21 2 0.59735855D-02 0.23388291D-01 0.24003448D+03 0.79411545D+04 0.79411545D+04 0.12198499D+01  1  2  5  1  5  1       -2 -.112508208541D+03
0.194693874375D-02 0.000000000000D+00 0.000000000000D+00 0.288092615907D+00 0.000000000000D+00  5 21 2 -13 13 2 2 0.59962089D-02 0.23388291D-01 0.17571908D+04 0.93186323D+04 0.93186323D+04 0.12125216D+01  1  2 12  3  5  1       -2 0.155112566729D+03
0.560577567613D-03 0.000000000000D+00 -.836074367431D-03 0.288092615907D+00 0.000000000000D+00  5 21 2 -13 13 2 2 0.59735855D-02 0.23388291D-01 0.24003448D+03 0.79411545D+04 0.79411545D+04 0.12198499D+01  1  2  5  3  5  1       -2 -.190253461117D+03
  </mgrwgt>
  </event>
  <event npLO=' -1 ' npNLO=' 0 '>
  6     66 -.12166989E+02 0.91998868E+02 0.75467711E-02 0.11782885E+00
       -2 -1    0    0    0  501 0.00000000E+00 0.00000000E+00 0.44924373E+01 0.44924373E+01 0.00000000E+00 0.0000E+00 0.9000E+01
        2 -1    0    0  502    0 0.00000000E+00 0.00000000E+00 -.51808302E+03 0.51808302E+03 0.00000000E+00 0.0000E+00 0.9000E+01
       23  2    1    2    0    0 -.15925742E+01 0.35122805E+01 -.50154811E+03 0.50993055E+03 0.91998868E+02 0.0000E+00 0.0000E+00
      -11  1    3    3    0    0 0.48813947E+01 0.58549066E+01 0.68195674E+00 0.76533006E+01 0.00000000E+00 0.0000E+00 0.9000E+01
       11  1    3    3    0    0 -.64739689E+01 -.23426261E+01 -.50223007E+03 0.50227725E+03 0.00000000E+00 0.0000E+00 0.9000E+01
       21  1    1    2  502  501 0.15925742E+01 -.35122805E+01 -.12042473E+02 0.12644902E+02 0.00000000E+00 0.0000E+00 0.9000E+01
#aMCatNLO 2  0  0  2  1 0.75316491D+01 0.00000000D+00  -5  5  0 0.00000000D+00 0.00000000D+00 0.00000000D+00 0.00000000D+00 0.00000000D+00
  <mgrwgt>
 -.2063580360D+03    3    2    0
 0.459994339573269D+02 0.000000000000000D+00 0.000000000000000D+00 0.459994339573269D+02
 0.459994339573269D+02 0.000000000000000D+00 0.000000000000000D+00 -.459994339573269D+02
 0.459994339573269D+02 0.567818484154862D+01 0.409765696776003D+01 0.454633407117675D+02
 0.459994339573269D+02 -.567818484154862D+01 -.409765696776003D+01 -.454633407117675D+02
 0.000000000000000D+00 0.000000000000000D+00 -.000000000000000D+00 0.000000000000000D+00
 0.493486220501932D+02 0.000000000000000D+00 0.000000000000000D+00 0.493486220501932D+02
 0.471635348037494D+02 0.000000000000000D+00 0.000000000000000D+00 -.471635348037494D+02
 0.460979749465978D+02 0.488139468758235D+01 0.585490660958412D+01 0.454633407117675D+02
 0.459816867834845D+02 -.647396891657637D+01 -.234262614333168D+01 -.454633407117675D+02
 0.443249512386033D+01 0.159257422899402D+01 -.351228046625244D+01 0.218508724644377D+01
-.201692640821D-01 0.000000000000D+00 0.000000000000D+00 0.110982585811D+01 0.000000000000D+00  5 -2 2 -11 11 21 2 0.64423768D-03 0.85508353D-01 0.84310143D+02 0.84786641D+04 0.84786641D+04 0.12168324D+01  1  2 13  2  5  2        2 -.591742317851D+03
-.134969031884D-03 0.000000000000D+00 0.000000000000D+00 0.110982585811D+01 0.000000000000D+00  5 -2 2 -11 11 21 2 0.64423768D-03 0.77737781D-01 0.49032576D+02 0.84637917D+04 0.84637917D+04 0.12169129D+01  1  2  8  2  5  2        2 -.439154210858D+01
0.135462956664D-01 0.000000000000D+00 0.000000000000D+00 0.110982585811D+01 0.590390735528D+00  5 -2 2 -11 11 21 2 0.69114419D-03 0.79705080D-01 0.84310143D+02 0.84786641D+04 0.84786641D+04 0.12168324D+01  1  2  1  2  5  2        2 0.389775823911D+03
  </mgrwgt>
  </event>
  <event npLO=' -1 ' npNLO=' 0 '>
  5     66 0.12166989E+02 0.80824160E+02 0.75467711E-02 0.11799300E+00
       -2 -1    0    0    0  501 0.00000000E+00 0.00000000E+00 0.27372390E+02 0.27372390E+02 0.00000000E+00 0.0000E+00 0.9000E+01
        2 -1    0    0  501    0 0.00000000E+00 0.00000000E+00 -.74947789E+02 0.74947789E+02 0.00000000E+00 0.0000E+00 0.9000E+01
       23  2    1    2    0    0 0.00000000E+00 0.00000000E+00 -.47575399E+02 0.10232018E+03 0.90586978E+02 0.0000E+00 0.0000E+00
      -13  1    3    3    0    0 -.22392113E+02 -.30850535E+02 -.51416930E+02 0.64006741E+02 0.00000000E+00 0.0000E+00 0.9000E+01
       13  1    3    3    0    0 0.22392113E+02 0.30850535E+02 0.38415311E+01 0.38313439E+02 0.00000000E+00 0.0000E+00 0.9000E+01
#aMCatNLO 1  0  0  2  1 0.11467231D+02 0.00000000D+00  -5  5  0 0.00000000D+00 0.00000000D+00 0.00000000D+00 0.00000000D+00 0.00000000D+00
  <mgrwgt>
 0.4595102433D+03    9    2    0
 0.452934889968633D+02 0.000000000000000D+00 0.000000000000000D+00 0.452934889968633D+02
 0.452934889968633D+02 0.000000000000000D+00 0.000000000000000D+00 -.452934889968633D+02
 0.452934889968633D+02 -.223921127554391D+02 -.308505348622683D+02 -.244609470497086D+02
 0.452934889968633D+02 0.223921127554391D+02 0.308505348622683D+02 0.244609470497086D+02
 0.000000000000000D+00 -.000000000000000D+00 -.000000000000000D+00 -.000000000000000D+00
 0.472094002286378D+02 0.000000000000000D+00 0.000000000000000D+00 0.472094002286378D+02
 0.641029416703915D+02 0.000000000000000D+00 0.000000000000000D+00 -.641029416703915D+02
 0.411379376616765D+02 -.186104388887971D+02 -.273430713134732D+02 -.244609470497086D+02
 0.500965380133662D+02 0.265657563736103D+02 0.347215463171498D+02 0.244609470497086D+02
 0.200778662239866D+02 -.795531748481319D+01 -.737847500367658D+01 -.168935414417537D+02
0.267862224195D-01 0.000000000000D+00 0.000000000000D+00 0.593682732487D+00 0.000000000000D+00  5 -2 2 -13 13 21 0 0.42111370D-02 0.11530429D-01 0.14531622D+04 0.82060006D+04 0.82060006D+04 0.12183354D+01  1  2  2  2  5  2        2 0.350449053561D+03
-.143433752864D-02 0.000000000000D+00 -.102866147065D-03 0.593682732487D+00 0.000000000000D+00  5 -2 2 -13 13 21 2 0.42111370D-02 0.11530429D-01 0.14531622D+04 0.82060006D+04 0.82060006D+04 0.12183354D+01  1  2  3  2  5  2        2 -.313128810125D+02
0.144670969734D-02 0.000000000000D+00 0.000000000000D+00 0.593682732487D+00 0.000000000000D+00  5 -2 2 -13 13 21 2 0.42111370D-02 0.11530429D-01 0.14531622D+04 0.82060006D+04 0.82060006D+04 0.12183354D+01  1  2 15  2  5  2        2 0.280949666140D+02
0.682641875892D-01 0.000000000000D+00 0.000000000000D+00 0.593682732487D+00 0.000000000000D+00  5 -2 2 -13 13 21 2 0.42111370D-02 0.17009062D-01 0.19203919D+04 0.83237296D+04 0.83237296D+04 0.12176796D+01  1  2 12  2  5  2        2 0.837252487620D+03
-.681274133995D-01 0.000000000000D+00 0.000000000000D+00 0.593682732487D+00 0.000000000000D+00  5 -2 2 -13 13 21 2 0.42111370D-02 0.11530429D-01 0.14531622D+04 0.82060006D+04 0.82060006D+04 0.12183354D+01  1  2  4  2  5  2        2 -.132302797754D+04
-.795192141751D-01 0.000000000000D+00 -.142741397148D-01 0.593682732487D+00 0.000000000000D+00  5 -2 2 -13 13 21 2 0.42111370D-02 0.16925296D-01 0.14531622D+04 0.82060006D+04 0.82060006D+04 0.12183354D+01  1  2  5  2  5  2        2 -.128572318989D+04
0.800214365104D-01 0.000000000000D+00 0.132836134449D-01 0.593682732487D+00 0.000000000000D+00  5 -2 2 -13 13 21 2 0.42111370D-02 0.11530429D-01 0.14531622D+04 0.82060006D+04 0.82060006D+04 0.12183354D+01  1  2  6  2  5  2        2 0.200058074526D+04
0.318225295789D-02 0.000000000000D+00 0.000000000000D+00 0.593682732487D+00 0.000000000000D+00  5 -2 21 -13 13 -2 2 0.42111370D-02 0.17009062D-01 0.19203919D+04 0.83237296D+04 0.83237296D+04 0.12176796D+01  1  2 12  4  5  2        2 0.307177634440D+03
-.321218067282D-02 0.000000000000D+00 -.659240228878D-03 0.593682732487D+00 0.000000000000D+00  5 -2 21 -13 13 -2 2 0.42111370D-02 0.16925296D-01 0.14531622D+04 0.82060006D+04 0.82060006D+04 0.12183354D+01  1  2  5  4  5  2        2 -.423980595767D+03
  </mgrwgt>
  </event>
  <event npLO=' -1 ' npNLO=' 0 '>
  6     66 -.12166989E+02 0.91282325E+02 0.75467711E-02 0.11779924E+00
       -2 -1    0    0    0  502 0.00000000E+00 0.00000000E+00 0.34916780E+01 0.34916780E+01 0.00000000E+00 0.0000E+00 0.9000E+01
        2 -1    0    0  501    0 0.00000000E+00 0.00000000E+00 -.80872318E+03 0.80872318E+03 0.00000000E+00 0.0000E+00 0.9000E+01
       23  2    1    2    0    0 0.95014450E+01 0.91774843E+01 -.66563733E+03 0.67199704E+03 0.91282325E+02 0.0000E+00 0.0000E+00
      -13  1    3    3    0    0 0.15866036E+02 0.37245124E+02 -.14445250E+03 0.15001818E+03 0.00000000E+00 0.0000E+00 0.9000E+01
       13  1    3    3    0    0 -.63645911E+01 -.28067640E+02 -.52118483E+03 0.52197886E+03 0.00000000E+00 0.0000E+00 0.9000E+01
       21  1    1    2  501  502 -.95014450E+01 -.91774843E+01 -.13959417E+03 0.14021782E+03 0.00000000E+00 0.0000E+00 0.9000E+01
#aMCatNLO 2  0  0  1  2 0.22639408D+02 0.00000000D+00  -5  5  0 0.00000000D+00 0.00000000D+00 0.00000000D+00 0.00000000D+00 0.00000000D+00
  <mgrwgt>
 -.1680036631D+02    2    2    0
 0.456411626472918D+02 0.000000000000000D+00 0.000000000000000D+00 0.456411626472918D+02
 0.456411626472918D+02 0.000000000000000D+00 0.000000000000000D+00 -.456411626472918D+02
 0.456411626472918D+02 0.108877923193629D+02 0.324366180867568D+02 0.302065806290756D+02
 0.456411626472918D+02 -.108877923193629D+02 -.324366180867568D+02 -.302065806290756D+02
 0.000000000000000D+00 -.000000000000000D+00 -.000000000000000D+00 -.000000000000000D+00
 0.506388982010301D+02 0.000000000000000D+00 0.000000000000000D+00 0.506388982010301D+02
 0.557634759031887D+02 0.000000000000000D+00 0.000000000000000D+00 -.557634759031887D+02
 0.505110668791783D+02 0.158660361408999D+02 0.372451239915729D+02 0.302065806290756D+02
 0.417221515749041D+02 -.636459112686319D+01 -.280676397035141D+02 -.302065806290756D+02
 0.141691556501363D+02 -.950144501403667D+01 -.917748428805884D+01 -.512457770215865D+01
-.462483080544D-02 0.000000000000D+00 0.000000000000D+00 0.106474113555D+01 0.000000000000D+00  5 -2 2 -13 13 21 2 0.65631748D-03 0.10183414D+00 0.17004859D+04 0.85069666D+04 0.85069666D+04 0.12166795D+01  1  2 13  1  5  1       -2 -.109052970965D+03
0.375268526218D-02 0.000000000000D+00 0.000000000000D+00 0.106474113555D+01 0.497936773996D-01  5 -2 2 -13 13 21 2 0.53718124D-03 0.12441895D+00 0.17004859D+04 0.85069666D+04 0.85069666D+04 0.12166795D+01  1  2  1  1  5  1       -2 0.922526046596D+02
  </mgrwgt>
  </event>
  <event npLO=' -1 ' npNLO=' 0 '>
  5     66 0.12166989E+02 0.58972520E+02 0.75467711E-02 0.11537242E+00
       -4 -1    0    0    0  501 0.00000000E+00 0.00000000E+00 0.34297450E+02 0.34297450E+02 0.00000000E+00 0.0000E+00 0.9000E+01
        4 -1    0    0  501    0 0.00000000E+00 0.00000000E+00 -.76382200E+02 0.76382200E+02 0.00000000E+00 0.0000E+00 0.9000E+01
       23  2    1    2    0    0 0.00000000E+00 0.00000000E+00 -.42084750E+02 0.11067965E+03 0.10236630E+03 0.0000E+00 0.0000E+00
      -13  1    3    3    0    0 0.39021855E+02 -.48596141E+01 -.56465779E+02 0.68809195E+02 0.00000000E+00 0.0000E+00 0.9000E+01
       13  1    3    3    0    0 -.39021855E+02 0.48596141E+01 0.14381030E+02 0.41870456E+02 0.00000000E+00 0.0000E+00 0.9000E+01
#aMCatNLO 1  0  0  1  2 0.33201280D+02 0.00000000D+00  -5  5  0 0.00000000D+00 0.00000000D+00 0.00000000D+00 0.00000000D+00 0.00000000D+00
  <mgrwgt>
 0.4773370764D+02    9    2    0
 0.511831485972945D+02 0.000000000000000D+00 0.000000000000000D+00 0.511831485972945D+02
 0.511831485972945D+02 0.000000000000000D+00 0.000000000000000D+00 -.511831485972945D+02
 0.511831485972945D+02 0.390218552810821D+02 -.485961414859794D+01 -.327626870247506D+02
 0.511831485972945D+02 -.390218552810821D+02 0.485961414859794D+01 0.327626870247506D+02
 0.000000000000000D+00 0.000000000000000D+00 -.000000000000000D+00 0.000000000000000D+00
 0.764152755345285D+02 0.000000000000000D+00 0.000000000000000D+00 0.764152755345285D+02
 0.612192642032639D+02 0.000000000000000D+00 0.000000000000000D+00 -.612192642032639D+02
 0.492460292012565D+02 0.358619209800467D+02 0.810557552738479D+01 -.327626870247506D+02
 0.568000498767028D+02 -.424194715941216D+02 0.188000115582326D+02 0.327626870247506D+02
 0.315884606598330D+02 0.655755061407488D+01 -.269055870856174D+02 0.151960113312646D+02
0.153522729138D-01 0.000000000000D+00 0.000000000000D+00 0.648307666684D-02 0.000000000000D+00  5 -4 4 -13 13 21 0 0.52765308D-02 0.11751108D-01 0.15463210D+04 0.10478859D+05 0.10478859D+05 0.12072322D+01  1  2  2  1  5  1       -4 0.382600382580D+02
-.780851261980D-03 0.000000000000D+00 -.589567703351D-04 0.648307666684D-02 0.000000000000D+00  5 -4 4 -13 13 21 2 0.52765308D-02 0.11751108D-01 0.15463210D+04 0.10478859D+05 0.10478859D+05 0.12072322D+01  1  2  3  1  5  1       -4 -.324585074478D+01
0.761659402343D-03 0.000000000000D+00 0.000000000000D+00 0.648307666684D-02 0.000000000000D+00  5 -4 4 -13 13 21 2 0.52765308D-02 0.11751108D-01 0.15463210D+04 0.10478859D+05 0.10478859D+05 0.12072322D+01  1  2 15  1  5  1       -4 0.276640093263D+01
0.708270577114D-02 0.000000000000D+00 0.000000000000D+00 0.648307666684D-02 0.000000000000D+00  5 -4 4 -13 13 21 2 0.94224267D-02 0.11751108D-01 0.30724042D+04 0.11245771D+05 0.11245771D+05 0.12040816D+01  1  2 12  1  5  1       -4 0.100395280369D+02
-.747484812240D-02 0.000000000000D+00 0.000000000000D+00 0.648307666684D-02 0.000000000000D+00  5 -4 4 -13 13 21 2 0.52765308D-02 0.11751108D-01 0.15463210D+04 0.10478859D+05 0.10478859D+05 0.12072322D+01  1  2  4  1  5  1       -4 -.271491781673D+02
-.646563193941D-02 0.000000000000D+00 -.477520381671D-02 0.648307666684D-02 0.000000000000D+00  5 -4 4 -13 13 21 2 0.93839886D-02 0.11751108D-01 0.15463210D+04 0.10478859D+05 0.10478859D+05 0.12072322D+01  1  2  5  1  5  1       -4 -.221888676281D+02
0.846743968705D-02 0.000000000000D+00 0.408009807861D-02 0.648307666684D-02 0.000000000000D+00  5 -4 4 -13 13 21 2 0.52765308D-02 0.11751108D-01 0.15463210D+04 0.10478859D+05 0.10478859D+05 0.12072322D+01  1  2  6  1  5  1       -4 0.591106119188D+02
0.451234912382D-03 0.000000000000D+00 0.000000000000D+00 0.648307666684D-02 0.000000000000D+00  5 21 4 -13 13 4 2 0.94224267D-02 0.11751108D-01 0.30724042D+04 0.11245771D+05 0.11245771D+05 0.12040816D+01  1  2 12  3  5  1       -4 0.152226246354D+02
-.160302631288D-03 0.000000000000D+00 -.302381518654D-03 0.648307666684D-02 0.000000000000D+00  5 21 4 -13 13 4 2 0.93839886D-02 0.11751108D-01 0.15463210D+04 0.10478859D+05 0.10478859D+05 0.12072322D+01  1  2  5  3  5  1       -4 -.250815996020D+02
  </mgrwgt>
  </event>
  <event npLO=' -1 ' npNLO=' 0 '>
  5     66 0.12166989E+02 0.88149762E+02 0.75467711E-02 0.11242898E+00
       -4 -1    0    0    0  501 0.00000000E+00 0.00000000E+00 0.20474828E+02 0.20474828E+02 0.00000000E+00 0.0000E+00 0.9000E+01
        4 -1    0    0  501    0 0.00000000E+00 0.00000000E+00 -.94877237E+02 0.94877237E+02 0.00000000E+00 0.0000E+00 0.9000E+01
       23  2    1    2    0    0 0.00000000E+00 0.00000000E+00 -.74402408E+02 0.11535207E+03 0.88149762E+02 0.0000E+00 0.0000E+00
      -13  1    3    3    0    0 0.24431115E+02 0.33894596E+02 -.18840204E+02 0.45833136E+02 0.00000000E+00 0.0000E+00 0.9000E+01
       13  1    3    3    0    0 -.24431115E+02 -.33894596E+02 -.55562204E+02 0.69518930E+02 0.00000000E+00 0.0000E+00 0.9000E+01
#aMCatNLO 1  0  0  1  2 0.13658772D+03 0.00000000D+00  -5  5  0 0.00000000D+00 0.00000000D+00 0.00000000D+00 0.00000000D+00 0.00000000D+00
  <mgrwgt>
 0.9392128318D+02    3    2    0
 0.440748811797955D+02 0.000000000000000D+00 0.000000000000000D+00 0.440748811797955D+02
 0.440748811797955D+02 0.000000000000000D+00 0.000000000000000D+00 -.440748811797955D+02
 0.440748811797955D+02 0.244311151003630D+02 0.338945962312068D+02 0.140311122969409D+02
 0.440748811797955D+02 -.244311151003630D+02 -.338945962312068D+02 -.140311122969409D+02
 0.000000000000000D+00 0.000000000000000D+00 0.000000000000000D+00 -.000000000000000D+00
 0.100690479815232D+03 0.000000000000000D+00 0.000000000000000D+00 0.100690479815232D+03
 0.118638084221109D+03 0.000000000000000D+00 0.000000000000000D+00 -.118638084221109D+03
 0.205053022897346D+02 0.601223834310066D+01 0.136911759834493D+02 0.140311122969409D+02
 0.106138674399916D+03 -.672734363644129D+02 -.808877670034557D+02 -.140311122969409D+02
 0.926845873466905D+02 0.612611980213123D+02 0.671965910200064D+02 -.179476044058770D+02
0.259939623264D-01 0.000000000000D+00 0.000000000000D+00 0.860040774468D-01 0.000000000000D+00  5 -4 4 -13 13 21 0 0.31499736D-02 0.14596498D-01 0.17457230D+04 0.77703806D+04 0.77703806D+04 0.12208569D+01  1  2  2  1  5  1       -4 0.952735974924D+02
-.143909692597D-02 0.000000000000D+00 -.998236597008D-04 0.860040774468D-01 0.000000000000D+00  5 -4 4 -13 13 21 2 0.31499736D-02 0.14596498D-01 0.17457230D+04 0.77703806D+04 0.77703806D+04 0.12208569D+01  1  2  3  1  5  1       -4 -.867602395514D+01
0.134060713627D-02 0.000000000000D+00 0.000000000000D+00 0.860040774468D-01 0.000000000000D+00  5 -4 4 -13 13 21 2 0.31499736D-02 0.14596498D-01 0.17457230D+04 0.77703806D+04 0.77703806D+04 0.12208569D+01  1  2 15  1  5  1       -4 0.732370964342D+01
  </mgrwgt>
  </event>
  <event npLO=' -1 ' npNLO=' 0 '>
  6     66 0.12166989E+02 0.91423739E+02 0.75467711E-02 0.11762925E+00
       21 -1    0    0  502  501 0.00000000E+00 0.00000000E+00 0.11715564E+02 0.11715564E+02 0.00000000E+00 0.0000E+00 0.9000E+01
        4 -1    0    0  501    0 0.00000000E+00 0.00000000E+00 -.26943874E+03 0.26943874E+03 0.00000000E+00 0.0000E+00 0.9000E+01
       23  2    1    2    0    0 -.61722196E+01 0.16588637E+02 -.19693304E+03 0.21783986E+03 0.91423739E+02 0.0000E+00 0.0000E+00
      -13  1    3    3    0    0 0.20622184E+02 -.26428500E+02 -.36341405E+02 0.49441256E+02 0.00000000E+00 0.0000E+00 0.9000E+01
       13  1    3    3    0    0 -.26794404E+02 0.43017137E+02 -.16059164E+03 0.16839860E+03 0.00000000E+00 0.0000E+00 0.9000E+01
        4  1    1    2  502    0 0.61722196E+01 -.16588637E+02 -.60790127E+02 0.63314443E+02 0.00000000E+00 0.0000E+00 0.9000E+01
#aMCatNLO 2  0  0  1  2 0.31352460D+02 0.00000000D+00  -5  5  0 0.00000000D+00 0.00000000D+00 0.00000000D+00 0.00000000D+00 0.00000000D+00
  <mgrwgt>
 0.5128724627D+01    2    2    0
 0.457118695874104D+02 0.000000000000000D+00 0.000000000000000D+00 0.457118695874104D+02
 0.457118695874104D+02 0.000000000000000D+00 0.000000000000000D+00 -.457118695874104D+02
 0.457118695874104D+02 0.234488582653005D+02 -.340255513645299D+02 0.195445112901295D+02
 0.457118695874104D+02 -.234488582653005D+02 0.340255513645299D+02 -.195445112901295D+02
 0.000000000000000D+00 0.000000000000000D+00 -.000000000000000D+00 -.000000000000000D+00
 0.521824525792092D+02 0.000000000000000D+00 0.000000000000000D+00 0.521824525792092D+02
 0.604921131517431D+02 0.000000000000000D+00 0.000000000000000D+00 -.604921131517431D+02
 0.388037112424812D+02 0.206221841485096D+02 -.264284998735233D+02 0.195445112901295D+02
 0.543176034588409D+02 -.267944037800995D+02 0.430171367016784D+02 -.195445112901295D+02
 0.195532510296301D+02 0.617221963158983D+01 -.165886368281551D+02 -.830966057253394D+01
-.219381387000D-03 0.000000000000D+00 0.000000000000D+00 0.836622780399D+00 0.000000000000D+00  5 21 4 -13 13 4 2 0.23851716D-02 0.31323977D-01 0.25959764D+04 0.86715793D+04 0.86715793D+04 0.12158013D+01  1  2 13  3  5  1       -4 -.109023641784D+02
0.372741638969D-03 0.000000000000D+00 0.000000000000D+00 0.836622780399D+00 0.535402281835D-03  5 21 4 -13 13 4 2 0.18023945D-02 0.41452113D-01 0.25959764D+04 0.86715793D+04 0.86715793D+04 0.12158013D+01  1  2  1  3  5  1       -4 0.160310888051D+02
  </mgrwgt>
  </event>
  <event npLO=' -1 ' npNLO=' 0 '>
  5     66 0.12166989E+02 0.42008417E+02 0.75467711E-02 0.11806533E+00
       -2 -1    0    0    0  501 0.00000000E+00 0.00000000E+00 0.10795865E+02 0.10795865E+02 0.00000000E+00 0.0000E+00 0.9000E+01
        2 -1    0    0  501    0 0.00000000E+00 0.00000000E+00 -.19119579E+03 0.19119579E+03 0.00000000E+00 0.0000E+00 0.9000E+01
       23  2    1    2    0    0 0.00000000E+00 0.00000000E+00 -.18039993E+03 0.20199165E+03 0.90865260E+02 0.0000E+00 0.0000E+00
      -11  1    3    3    0    0 -.38591692E+02 0.14211082E+01 -.14340241E+03 0.14851124E+03 0.00000000E+00 0.0000E+00 0.9000E+01
       11  1    3    3    0    0 0.38591692E+02 -.14211082E+01 -.36997514E+02 0.53480410E+02 0.00000000E+00 0.0000E+00 0.9000E+01
#aMCatNLO 1  0  0  1  2 0.31352460D+02 0.00000000D+00  -5  5  0 0.00000000D+00 0.00000000D+00 0.00000000D+00 0.00000000D+00 0.00000000D+00
  <mgrwgt>
 0.9424162096D+01    1    2    0
 0.454326300101522D+02 0.000000000000000D+00 0.000000000000000D+00 0.454326300101522D+02
 0.454326300101522D+02 0.000000000000000D+00 0.000000000000000D+00 -.454326300101522D+02
 0.454326300101522D+02 -.385916915453300D+02 0.142110815315883D+01 -.239329410003559D+02
 0.454326300101522D+02 0.385916915453300D+02 -.142110815315883D+01 0.239329410003559D+02
 0.000000000000000D+00 0.000000000000000D+00 -.000000000000000D+00 0.000000000000000D+00
 0.817511197866885D+02 0.000000000000000D+00 0.000000000000000D+00 0.817511197866885D+02
 0.473037963780781D+02 0.000000000000000D+00 0.000000000000000D+00 -.473037963780781D+02
 0.518479317975775D+02 -.459468682677348D+02 0.207549106169192D+01 -.239329410003559D+02
 0.400704913043557D+02 0.321269820915709D+02 -.845949250139418D+00 0.239329410003559D+02
 0.371364930628335D+02 0.138198861761638D+02 -.122954181155250D+01 0.344473234086104D+02
0.378566776159D-03 0.000000000000D+00 0.000000000000D+00 0.678752514314D+00 0.000000000000D+00  5 -2 2 -11 11 21 2 0.16609023D-02 0.29414737D-01 0.14913382D+04 0.82564955D+04 0.82564955D+04 0.12180528D+01  1  2 14  1  5  1       -2 0.942416209556D+01
  </mgrwgt>
  </event>
  <event npLO=' -1 ' npNLO=' 0 '>
  5     66 0.12166989E+02 0.40704142E+02 0.75467711E-02 0.11697322E+00
       -2 -1    0    0    0  501 0.00000000E+00 0.00000000E+00 0.28178041E+01 0.28178041E+01 0.00000000E+00 0.0000E+00 0.9000E+01
        2 -1    0    0  501    0 0.00000000E+00 0.00000000E+00 -.77829115E+03 0.77829115E+03 0.00000000E+00 0.0000E+00 0.9000E+01
       23  2    1    2    0    0 0.00000000E+00 0.00000000E+00 -.77547334E+03 0.78110895E+03 0.93660493E+02 0.0000E+00 0.0000E+00
      -13  1    3    3    0    0 -.24432090E+02 0.51960474E+01 -.57377128E+02 0.62578437E+02 0.00000000E+00 0.0000E+00 0.9000E+01
       13  1    3    3    0    0 0.24432090E+02 -.51960474E+01 -.71809622E+03 0.71853051E+03 0.00000000E+00 0.0000E+00 0.9000E+01
#aMCatNLO 1  0  0  2  1 0.28235006D+02 0.00000000D+00  -5  5  0 0.00000000D+00 0.00000000D+00 0.00000000D+00 0.00000000D+00 0.00000000D+00
  <mgrwgt>
 0.6149536291D+03    9    2    0
 0.468302462956525D+02 0.000000000000000D+00 0.000000000000000D+00 0.468302462956525D+02
 0.468302462956525D+02 0.000000000000000D+00 0.000000000000000D+00 -.468302462956525D+02
 0.468302462956525D+02 -.244320903933629D+02 0.519604735274947D+01 0.396124477788233D+02
 0.468302462956525D+02 0.244320903933629D+02 -.519604735274947D+01 -.396124477788233D+02
 0.000000000000000D+00 -.000000000000000D+00 -.000000000000000D+00 -.000000000000000D+00
 0.550286113909072D+02 0.000000000000000D+00 0.000000000000000D+00 0.550286113909072D+02
 0.695971864790319D+02 0.000000000000000D+00 0.000000000000000D+00 -.695971864790319D+02
 0.464355639588975D+02 -.187068262503749D+02 0.154003322298301D+02 0.396124477788233D+02
 0.502203226987301D+02 0.303896877294458D+02 0.542233092326119D+01 -.396124477788233D+02
 0.279699112123116D+02 -.116828614790709D+02 -.208226631530913D+02 -.145685750881247D+02
0.170600683209D-01 0.000000000000D+00 0.000000000000D+00 0.313970130961D+00 0.000000000000D+00  5 -2 2 -13 13 21 0 0.43350832D-03 0.11973710D+00 0.62392595D+03 0.87722879D+04 0.87722879D+04 0.12152732D+01  1  2  2  2  5  2        2 0.397300503648D+03
-.492564129107D-03 0.000000000000D+00 -.655151543713D-04 0.313970130961D+00 0.000000000000D+00  5 -2 2 -13 13 21 2 0.43350832D-03 0.11973710D+00 0.62392595D+03 0.87722879D+04 0.87722879D+04 0.12152732D+01  1  2  3  2  5  2        2 -.228977054001D+02
0.483327150370D-03 0.000000000000D+00 0.000000000000D+00 0.313970130961D+00 0.000000000000D+00  5 -2 2 -13 13 21 2 0.43350832D-03 0.11973710D+00 0.62392595D+03 0.87722879D+04 0.87722879D+04 0.12152732D+01  1  2 15  2  5  2        2 0.166236878903D+02
0.116473040992D-01 0.000000000000D+00 0.000000000000D+00 0.313970130961D+00 0.000000000000D+00  5 -2 2 -13 13 21 2 0.43350832D-03 0.20910099D+00 0.15593141D+04 0.93423604D+04 0.93423604D+04 0.12124062D+01  1  2 12  2  5  2        2 0.187576391540D+03
-.120966124845D-01 0.000000000000D+00 0.000000000000D+00 0.313970130961D+00 0.000000000000D+00  5 -2 2 -13 13 21 2 0.43350832D-03 0.11973710D+00 0.62392595D+03 0.87722879D+04 0.87722879D+04 0.12152732D+01  1  2  4  2  5  2        2 -.416054240526D+03
-.754483671287D-02 0.000000000000D+00 -.693427009654D-02 0.313970130961D+00 0.000000000000D+00  5 -2 2 -13 13 21 2 0.43350832D-03 0.19606215D+00 0.62392595D+03 0.87722879D+04 0.87722879D+04 0.12152732D+01  1  2  5  2  5  2        2 -.462202368531D+03
0.104350345705D-01 0.000000000000D+00 0.616887181438D-02 0.313970130961D+00 0.000000000000D+00  5 -2 2 -13 13 21 2 0.43350832D-03 0.11973710D+00 0.62392595D+03 0.87722879D+04 0.87722879D+04 0.12152732D+01  1  2  6  2  5  2        2 0.919749207991D+03
0.717685772796D-03 0.000000000000D+00 0.000000000000D+00 0.313970130961D+00 0.000000000000D+00  5 -2 21 -13 13 -2 2 0.43350832D-03 0.20910099D+00 0.15593141D+04 0.93423604D+04 0.93423604D+04 0.12124062D+01  1  2 12  4  5  2        2 0.533050989867D+01
-.112885171317D-03 0.000000000000D+00 -.386724745528D-03 0.313970130961D+00 0.000000000000D+00  5 -2 21 -13 13 -2 2 0.43350832D-03 0.19606215D+00 0.62392595D+03 0.87722879D+04 0.87722879D+04 0.12152732D+01  1  2  5  4  5  2        2 -.104723573654D+02
  </mgrwgt>
  </event>
  <event npLO=' -1 ' npNLO=' 0 '>
  4     66 0.12166989E+02 0.25348677E+02 0.75467711E-02 0.12913269E+00
       -2 -1    0    0    0  501 0.00000000E+00 0.00000000E+00 0.21633471E+03 0.21633471E+03 0.00000000E+00 0.0000E+00 0.9000E+01
        2 -1    0    0  501    0 0.00000000E+00 0.00000000E+00 -.30778132E+01 0.30778132E+01 0.00000000E+00 0.0000E+00 0.9000E+01
      -11  1    1    2    0    0 -.82701109E+01 0.17633874E+02 0.17859018E+03 0.17964910E+03 0.00000000E+00 0.0000E+00 0.9000E+01
       11  1    1    2    0    0 0.82701109E+01 -.17633874E+02 0.34666718E+02 0.39763421E+02 0.00000000E+00 0.0000E+00 0.9000E+01
#aMCatNLO 1  0  0  2  1 0.43086604D+01 0.00000000D+00  -5  5  0 0.00000000D+00 0.00000000D+00 0.00000000D+00 0.00000000D+00 0.00000000D+00
  <mgrwgt>
 0.4347731787D+03   10    2    0
 0.258038336158450D+02 0.000000000000000D+00 0.000000000000000D+00 0.258038336158450D+02
 0.258038336158450D+02 0.000000000000000D+00 0.000000000000000D+00 -.258038336158450D+02
 0.258038336158450D+02 -.827011089606264D+01 0.176338741368362D+02 0.169260030121484D+02
 0.258038336158450D+02 0.827011089606264D+01 -.176338741368362D+02 -.169260030121484D+02
 0.000000000000000D+00 -.000000000000000D+00 -.000000000000000D+00 0.000000000000000D+00
 0.280156161765331D+02 0.000000000000000D+00 0.000000000000000D+00 0.280156161765331D+02
 0.258675206064494D+02 0.000000000000000D+00 0.000000000000000D+00 -.258675206064494D+02
 0.257542774152950D+02 -.791450552579902D+01 0.177243851656077D+02 0.169260030121484D+02
 0.258586182341735D+02 0.862643592332666D+01 -.175431799362092D+02 -.169260030121484D+02
 0.227024113351387D+01 -.711930397527634D+00 -.181205229398494D+00 0.214809557008368D+01
0.879983984927D-02 0.000000000000D+00 0.000000000000D+00 0.113692576371D-02 0.000000000000D+00  5 -2 2 -11 11 21 0 0.33282263D-01 0.47350972D-03 0.37934825D+03 0.26633513D+04 0.26633513D+04 0.12738746D+01  1  2  2  2  5  2        2 0.273263065432D+03
-.441846189413D-03 0.000000000000D+00 -.337937020723D-04 0.113692576371D-02 0.000000000000D+00  5 -2 2 -11 11 21 2 0.33282263D-01 0.47350972D-03 0.37934825D+03 0.26633513D+04 0.26633513D+04 0.12738746D+01  1  2  3  2  5  2        2 -.255842130132D+02
0.447651784977D-03 0.000000000000D+00 0.000000000000D+00 0.113692576371D-02 0.000000000000D+00  5 -2 2 -11 11 21 2 0.33282263D-01 0.47350972D-03 0.37934825D+03 0.26633513D+04 0.26633513D+04 0.12738746D+01  1  2 15  2  5  2        2 0.225579623255D+02
0.138938207695D-02 0.000000000000D+00 0.000000000000D+00 0.113692576371D-02 0.000000000000D+00  5 -2 2 -11 11 21 2 0.33282263D-01 0.51536559D-03 0.39392682D+03 0.26638910D+04 0.26638910D+04 0.12738639D+01  1  2 12  2  5  2        2 0.626593102859D+02
-.153478909266D-02 0.000000000000D+00 0.000000000000D+00 0.113692576371D-02 0.000000000000D+00  5 -2 2 -11 11 21 2 0.33282263D-01 0.47350972D-03 0.37934825D+03 0.26633513D+04 0.26633513D+04 0.12738746D+01  1  2  4  2  5  2        2 -.773407270821D+02
0.253768972886D-04 0.000000000000D+00 0.000000000000D+00 0.113692576371D-02 0.000000000000D+00  5 -2 2 -11 11 21 2 0.33282263D-01 0.51634798D-03 0.37934825D+03 0.26633513D+04 0.26633513D+04 0.12738746D+01  1  2  5  2  5  2        2 0.114160613355D+01
-.252820174694D-04 0.000000000000D+00 0.000000000000D+00 0.113692576371D-02 0.000000000000D+00  5 -2 2 -11 11 21 2 0.33282263D-01 0.47350972D-03 0.37934825D+03 0.26633513D+04 0.26633513D+04 0.12738746D+01  1  2  6  2  5  2        2 -.127400541386D+01
0.129376611148D-02 0.000000000000D+00 0.000000000000D+00 0.113692576371D-02 0.182948793482D-01  5 -2 2 -11 11 21 2 0.36135061D-01 0.47467840D-03 0.39392682D+03 0.26638910D+04 0.26638910D+04 0.12738639D+01  1  2 11  2  5  2        2 0.564143348650D+02
0.205652173735D-04 0.000000000000D+00 0.000000000000D+00 0.113692576371D-02 0.000000000000D+00  5 -2 21 -11 11 -2 2 0.33282263D-01 0.51536559D-03 0.39392682D+03 0.26638910D+04 0.26638910D+04 0.12738639D+01  1  2 12  4  5  2        2 0.181094280744D+02
0.122103171159D-03 0.000000000000D+00 0.000000000000D+00 0.113692576371D-02 0.889924032048D-05  5 -2 21 -11 11 -2 2 0.36135061D-01 0.47467840D-03 0.39392682D+03 0.26638910D+04 0.26638910D+04 0.12738639D+01  1  2 11  4  5  2        2 0.104826417089D+03
  </mgrwgt>
  </event>
  <event npLO=' -1 ' npNLO=' 0 '>
  5     66 0.12166989E+02 0.65563598E+02 0.75467711E-02 0.11729457E+00
       -2 -1    0    0    0  501 0.00000000E+00 0.00000000E+00 0.51604553E+00 0.51604553E+00 0.00000000E+00 0.0000E+00 0.9000E+01
        2 -1    0    0  501    0 0.00000000E+00 0.00000000E+00 -.43157382E+04 0.43157382E+04 0.00000000E+00 0.0000E+00 0.9000E+01
       23  2    1    2    0    0 0.00000000E+00 0.00000000E+00 -.43152221E+04 0.43162542E+04 0.94384690E+02 0.0000E+00 0.0000E+00
      -13  1    3    3    0    0 0.17077317E+02 0.34008021E+02 -.88129958E+03 0.88212081E+03 0.00000000E+00 0.0000E+00 0.9000E+01
       13  1    3    3    0    0 -.17077317E+02 -.34008021E+02 -.34339226E+04 0.34341334E+04 0.00000000E+00 0.0000E+00 0.9000E+01
#aMCatNLO 1  0  0  1  2 0.23840953D+02 0.00000000D+00  -5  5  0 0.00000000D+00 0.00000000D+00 0.00000000D+00 0.00000000D+00 0.00000000D+00
  <mgrwgt>
 0.1840008544D+03    6    2    0
 0.471923448204317D+02 0.000000000000000D+00 0.000000000000000D+00 0.471923448204317D+02
 0.471923448204317D+02 0.000000000000000D+00 0.000000000000000D+00 -.471923448204317D+02
 0.471923448204317D+02 0.170773173944133D+02 0.340080206655908D+02 0.279094459040259D+02
 0.471923448204317D+02 -.170773173944133D+02 -.340080206655908D+02 -.279094459040259D+02
 0.000000000000000D+00 0.000000000000000D+00 -.000000000000000D+00 -.000000000000000D+00
 0.495179464585576D+02 0.000000000000000D+00 0.000000000000000D+00 0.495179464585576D+02
 0.593192857951591D+02 0.000000000000000D+00 0.000000000000000D+00 -.593192857951591D+02
 0.504243130569753D+02 0.157359678540262D+02 0.389365315904634D+02 0.279094459040259D+02
 0.444786263264127D+02 -.183369673116342D+02 -.293796980758306D+02 -.279094459040259D+02
 0.139342928703288D+02 0.260099945760796D+01 -.955683351463278D+01 -.980133933660148D+01
0.104860130774D+00 0.000000000000D+00 0.000000000000D+00 0.165469828696D+00 0.000000000000D+00  5 -2 2 -13 13 21 0 0.79391621D-04 0.66395972D+00 0.14481802D+04 0.89084696D+04 0.89084696D+04 0.12145698D+01  1  2  2  1  5  1       -2 0.166948569572D+03
-.549753957223D-02 0.000000000000D+00 -.402690512478D-03 0.165469828696D+00 0.000000000000D+00  5 -2 2 -13 13 21 2 0.79391621D-04 0.66395972D+00 0.14481802D+04 0.89084696D+04 0.89084696D+04 0.12145698D+01  1  2  3  1  5  1       -2 -.146299523042D+02
0.515848334653D-02 0.000000000000D+00 0.000000000000D+00 0.165469828696D+00 0.000000000000D+00  5 -2 2 -13 13 21 2 0.79391621D-04 0.66395972D+00 0.14481802D+04 0.89084696D+04 0.89084696D+04 0.12145698D+01  1  2 15  1  5  1       -2 0.121154422254D+02
0.120081974839D-01 0.000000000000D+00 0.000000000000D+00 0.165469828696D+00 0.000000000000D+00  5 -2 2 -13 13 21 2 0.10471047D-03 0.66395972D+00 0.18719940D+04 0.90065679D+04 0.90065679D+04 0.12140705D+01  1  2 12  1  5  1       -2 0.195275857098D+02
-.696213256303D-02 0.000000000000D+00 0.000000000000D+00 0.165469828696D+00 0.000000000000D+00  5 -2 2 -13 13 21 2 0.79391621D-04 0.66395972D+00 0.14481802D+04 0.89084696D+04 0.89084696D+04 0.12145698D+01  1  2  4  1  5  1       -2 -.163515725780D+02
0.437877352248D-03 0.000000000000D+00 0.000000000000D+00 0.165469828696D+00 0.000000000000D+00  5 21 2 -13 13 2 2 0.10471047D-03 0.66395972D+00 0.18719940D+04 0.90065679D+04 0.90065679D+04 0.12140705D+01  1  2 12  3  5  1       -2 0.163907817467D+02
  </mgrwgt>
  </event>
  <event npLO=' -1 ' npNLO=' 0 '>
  5     66 -.12166989E+02 0.58239626E+02 0.75467711E-02 0.11769556E+00
       -2 -1    0    0    0  501 0.00000000E+00 0.00000000E+00 0.70626840E+01 0.70626840E+01 0.00000000E+00 0.0000E+00 0.9000E+01
        2 -1    0    0  501    0 0.00000000E+00 0.00000000E+00 -.30465400E+03 0.30465400E+03 0.00000000E+00 0.0000E+00 0.9000E+01
       23  2    1    2    0    0 0.00000000E+00 0.00000000E+00 -.29759132E+03 0.31171669E+03 0.92772301E+02 0.0000E+00 0.0000E+00
      -11  1    3    3    0    0 0.43903583E+02 0.59966642E+00 -.19906032E+03 0.20384527E+03 0.00000000E+00 0.0000E+00 0.9000E+01
       11  1    3    3    0    0 -.43903583E+02 -.59966642E+00 -.98531000E+02 0.10787141E+03 0.00000000E+00 0.0000E+00 0.9000E+01
#aMCatNLO 1  0  0  1  2 0.60044021D+00 0.00000000D+00  -5  5  0 0.00000000D+00 0.00000000D+00 0.00000000D+00 0.00000000D+00 0.00000000D+00
  <mgrwgt>
 -.5997056696D+03   11    2    0
 0.463861504119943D+02 0.000000000000000D+00 0.000000000000000D+00 0.463861504119943D+02
 0.463861504119943D+02 0.000000000000000D+00 0.000000000000000D+00 -.463861504119943D+02
 0.463861504119943D+02 0.439035834604823D+02 0.599666417244552D+00 -.149596360102998D+02
 0.463861504119943D+02 -.439035834604823D+02 -.599666417244552D+00 0.149596360102998D+02
 0.000000000000000D+00 0.000000000000000D+00 0.000000000000000D+00 0.000000000000000D+00
 0.467119485487952D+02 0.000000000000000D+00 0.000000000000000D+00 0.467119485487952D+02
 0.465654617258559D+02 0.000000000000000D+00 0.000000000000000D+00 -.465654617258559D+02
 0.462913564285022D+02 0.438058773264656D+02 0.379581465070717D+00 -.149596360102998D+02
 0.464821969879799D+02 -.440014907899553D+02 -.820204566065957D+00 0.149596360102998D+02
 0.503856858169001D+00 0.195613463489690D+00 0.440623100995239D+00 0.146486822939280D+00
0.137044311796D-01 0.000000000000D+00 0.000000000000D+00 0.241518867054D+00 0.000000000000D+00  5 -2 2 -11 11 21 0 0.10865668D-02 0.46869847D-01 0.19278842D+04 0.86066998D+04 0.86066998D+04 0.12161452D+01  1  2  2  1  5  1       -2 0.252558518909D+03
-.758566029357D-03 0.000000000000D+00 -.526286241894D-04 0.241518867054D+00 0.000000000000D+00  5 -2 2 -11 11 21 2 0.10865668D-02 0.46869847D-01 0.19278842D+04 0.86066998D+04 0.86066998D+04 0.12161452D+01  1  2  3  1  5  1       -2 -.228220862316D+02
0.737373619079D-03 0.000000000000D+00 0.000000000000D+00 0.241518867054D+00 0.000000000000D+00  5 -2 2 -11 11 21 2 0.10865668D-02 0.46869847D-01 0.19278842D+04 0.86066998D+04 0.86066998D+04 0.12161452D+01  1  2 15  1  5  1       -2 0.200983050919D+02
0.392781643531D-10 0.000000000000D+00 0.000000000000D+00 0.241518867054D+00 0.000000000000D+00  5 -2 2 -11 11 21 2 0.10984281D-02 0.46869847D-01 0.19491673D+04 0.86069322D+04 0.86069322D+04 0.12161439D+01  1  2 12  1  5  1       -2 0.105462688598D-05
-.229586056998D+00 0.000000000000D+00 0.000000000000D+00 0.241518867054D+00 0.000000000000D+00  5 -2 2 -11 11 21 2 0.10865668D-02 0.46869847D-01 0.19278842D+04 0.86066998D+04 0.86066998D+04 0.12161452D+01  1  2  4  1  5  1       -2 -.625773759597D+04
-.143049665416D+01 0.000000000000D+00 -.148244076728D+00 0.241518867054D+00 0.000000000000D+00  5 -2 2 -11 11 21 2 0.10984297D-02 0.46869847D-01 0.19278842D+04 0.86066998D+04 0.86066998D+04 0.12161452D+01  1  2  5  1  5  1       -2 -.443641682619D+05
0.143203069179D+01 0.000000000000D+00 0.148235337477D+00 0.241518867054D+00 0.000000000000D+00  5 -2 2 -11 11 21 2 0.10865668D-02 0.46869847D-01 0.19278842D+04 0.86066998D+04 0.86066998D+04 0.12161452D+01  1  2  6  1  5  1       -2 0.450772054555D+05
0.229594074908D+00 0.000000000000D+00 0.000000000000D+00 0.241518867054D+00 0.819735692145D+01  5 -2 2 -11 11 21 2 0.10941984D-02 0.47051028D-01 0.19491673D+04 0.86069322D+04 0.86069322D+04 0.12161439D+01  1  2 11  1  5  1       -2 0.617232161810D+04
0.544706574107D-11 0.000000000000D+00 0.000000000000D+00 0.241518867054D+00 0.000000000000D+00  5 21 2 -11 11 2 2 0.10984281D-02 0.46869847D-01 0.19491673D+04 0.86069322D+04 0.86069322D+04 0.12161439D+01  1  2 12  3  5  1       -2 0.279229559171D-05
-.285914172088D-02 0.000000000000D+00 -.296966365515D-03 0.241518867054D+00 0.000000000000D+00  5 21 2 -11 11 2 2 0.10984297D-02 0.46869847D-01 0.19278842D+04 0.86066998D+04 0.86066998D+04 0.12161452D+01  1  2  5  3  5  1       -2 -.169341733688D+04
0.421180081247D-03 0.000000000000D+00 0.000000000000D+00 0.241518867054D+00 0.106705566031D-01  5 21 2 -11 11 2 2 0.10941984D-02 0.47051028D-01 0.19491673D+04 0.86069322D+04 0.86069322D+04 0.12161439D+01  1  2 11  3  5  1       -2 0.216255709968D+03
  </mgrwgt>
  </event>
  <event npLO=' -1 ' npNLO=' 0 '>
  5     66 0.12166989E+02 0.46777158E+02 0.75467711E-02 0.11714039E+00
       -2 -1    0    0    0  501 0.00000000E+00 0.00000000E+00 0.54933280E+01 0.54933280E+01 0.00000000E+00 0.0000E+00 0.9000E+01
        2 -1    0    0  501    0 0.00000000E+00 0.00000000E+00 -.39623562E+03 0.39623562E+03 0.00000000E+00 0.0000E+00 0.9000E+01
       23  2    1    2    0    0 0.00000000E+00 0.00000000E+00 -.39074230E+03 0.40172895E+03 0.93309212E+02 0.0000E+00 0.0000E+00
      -11  1    3    3    0    0 0.39729010E+02 -.24443606E+02 -.19159782E+03 0.19719434E+03 0.00000000E+00 0.0000E+00 0.9000E+01
       11  1    3    3    0    0 -.39729010E+02 0.24443606E+02 -.19914448E+03 0.20453461E+03 0.00000000E+00 0.0000E+00 0.9000E+01
#aMCatNLO 1  0  0  1  2 0.31665227D+02 0.00000000D+00  -5  5  0 0.00000000D+00 0.00000000D+00 0.00000000D+00 0.00000000D+00 0.00000000D+00
  <mgrwgt>
 0.3540662868D+03    6    2    0
 0.466546060348101D+02 0.000000000000000D+00 0.000000000000000D+00 0.466546060348101D+02
 0.466546060348101D+02 0.000000000000000D+00 0.000000000000000D+00 -.466546060348101D+02
 0.466546060348101D+02 0.397290103946341D+02 -.244436059529549D+02 0.876427602861734D+00
 0.466546060348101D+02 -.397290103946341D+02 0.244436059529549D+02 -.876427602861734D+00
 0.000000000000000D+00 0.000000000000000D+00 0.000000000000000D+00 -.000000000000000D+00
 0.575372759839217D+02 0.000000000000000D+00 0.000000000000000D+00 0.575372759839217D+02
 0.597463351535824D+02 0.000000000000000D+00 0.000000000000000D+00 -.597463351535824D+02
 0.400099496531450D+02 0.300917857881726D+02 -.263536026755902D+02 0.876427602861734D+00
 0.557288084661059D+02 -.511141949569882D+02 0.221871819212773D+02 -.876427602861734D+00
 0.215448530182532D+02 0.210224091688157D+02 0.416642075431285D+01 -.220905916966064D+01
0.175633271874D-01 0.000000000000D+00 0.000000000000D+00 0.177388164384D+00 0.000000000000D+00  5 -2 2 -11 11 21 0 0.84512739D-03 0.60959327D-01 0.21758841D+04 0.87066091D+04 0.87066091D+04 0.12156168D+01  1  2  2  1  5  1       -2 0.346376939868D+03
-.975740362354D-03 0.000000000000D+00 -.674478009300D-04 0.177388164384D+00 0.000000000000D+00  5 -2 2 -11 11 21 2 0.84512739D-03 0.60959327D-01 0.21758841D+04 0.87066091D+04 0.87066091D+04 0.12156168D+01  1  2  3  1  5  1       -2 -.311617340091D+02
0.900255640873D-03 0.000000000000D+00 0.000000000000D+00 0.177388164384D+00 0.000000000000D+00  5 -2 2 -11 11 21 2 0.84512739D-03 0.60959327D-01 0.21758841D+04 0.87066091D+04 0.87066091D+04 0.12156168D+01  1  2 15  1  5  1       -2 0.262362303903D+02
0.506438131465D-02 0.000000000000D+00 0.000000000000D+00 0.177388164384D+00 0.000000000000D+00  5 -2 2 -11 11 21 2 0.13347308D-02 0.60959327D-01 0.34312397D+04 0.91659098D+04 0.91659098D+04 0.12132723D+01  1  2 12  1  5  1       -2 0.784380034621D+02
-.491009716808D-02 0.000000000000D+00 0.000000000000D+00 0.177388164384D+00 0.000000000000D+00  5 -2 2 -11 11 21 2 0.84512739D-03 0.60959327D-01 0.21758841D+04 0.87066091D+04 0.87066091D+04 0.12156168D+01  1  2  4  1  5  1       -2 -.143095399453D+03
0.266277442209D-03 0.000000000000D+00 0.000000000000D+00 0.177388164384D+00 0.000000000000D+00  5 21 2 -11 11 2 2 0.13347308D-02 0.60959327D-01 0.34312397D+04 0.91659098D+04 0.91659098D+04 0.12132723D+01  1  2 12  3  5  1       -2 0.772722465203D+02
  </mgrwgt>
  </event>
  <event npLO=' -1 ' npNLO=' 0 '>
  5     66 0.12166989E+02 0.39734415E+02 0.75467711E-02 0.11688435E+00
       -2 -1    0    0    0  501 0.00000000E+00 0.00000000E+00 0.92016159E+00 0.92016159E+00 0.00000000E+00 0.0000E+00 0.9000E+01
        2 -1    0    0  501    0 0.00000000E+00 0.00000000E+00 -.23105102E+04 0.23105102E+04 0.00000000E+00 0.0000E+00 0.9000E+01
       23  2    1    2    0    0 0.00000000E+00 0.00000000E+00 -.23095900E+04 0.23114303E+04 0.92218062E+02 0.0000E+00 0.0000E+00
      -13  1    3    3    0    0 -.16150973E+02 0.26105583E+02 -.20171445E+04 0.20173781E+04 0.00000000E+00 0.0000E+00 0.9000E+01
       13  1    3    3    0    0 0.16150973E+02 -.26105583E+02 -.29244551E+03 0.29405226E+03 0.00000000E+00 0.0000E+00 0.9000E+01
#aMCatNLO 1  0  0  2  1 0.34987407D+02 0.00000000D+00  -5  5  0 0.00000000D+00 0.00000000D+00 0.00000000D+00 0.00000000D+00 0.00000000D+00
  <mgrwgt>
 0.1425483189D+04    8    2    0
 0.461090309201612D+02 0.000000000000000D+00 0.000000000000000D+00 0.461090309201612D+02
 0.461090309201612D+02 0.000000000000000D+00 0.000000000000000D+00 -.461090309201612D+02
 0.461090309201612D+02 -.161509734084113D+02 0.261055831726023D+02 -.344047571939625D+02
 0.461090309201612D+02 0.161509734084113D+02 -.261055831726023D+02 0.344047571939625D+02
 0.000000000000000D+00 -.000000000000000D+00 -.000000000000000D+00 -.000000000000000D+00
 0.556007267744008D+02 0.000000000000000D+00 0.000000000000000D+00 0.556007267744008D+02
 0.817904720812956D+02 0.000000000000000D+00 0.000000000000000D+00 -.817904720812956D+02
 0.554320192403419D+02 -.116735005939920D+02 0.418658670442664D+02 -.344047571939625D+02
 0.417161602489013D+02 0.200236426910225D+02 -.124741509417981D+02 0.344047571939625D+02
 0.402430193664531D+02 -.835014209703052D+01 -.293917161024683D+02 -.261897453068948D+02
0.379552996629D-01 0.000000000000D+00 0.000000000000D+00 0.484524578868D+00 0.000000000000D+00  5 -2 2 -13 13 21 0 0.14156332D-03 0.35546311D+00 0.94235541D+03 0.85041709D+04 0.85041709D+04 0.12166945D+01  1  2  2  2  5  2        2 0.595878823962D+03
-.168432012938D-02 0.000000000000D+00 -.145758344565D-03 0.484524578868D+00 0.000000000000D+00  5 -2 2 -13 13 21 2 0.14156332D-03 0.35546311D+00 0.94235541D+03 0.85041709D+04 0.85041709D+04 0.12166945D+01  1  2  3  2  5  2        2 -.465970366806D+02
0.180230659102D-02 0.000000000000D+00 0.000000000000D+00 0.484524578868D+00 0.000000000000D+00  5 -2 2 -13 13 21 2 0.14156332D-03 0.35546311D+00 0.94235541D+03 0.85041709D+04 0.85041709D+04 0.12166945D+01  1  2 15  2  5  2        2 0.418868124054D+02
0.198550796262D-01 0.000000000000D+00 0.000000000000D+00 0.484524578868D+00 0.000000000000D+00  5 -2 2 -13 13 21 2 0.14156332D-03 0.76033630D+00 0.23818809D+04 0.94377688D+04 0.94377688D+04 0.12119456D+01  1  2 12  2  5  2        2 0.576399595678D+01
-.144654580927D-01 0.000000000000D+00 -.102388114216D-01 0.484524578868D+00 0.000000000000D+00  5 -2 2 -13 13 21 2 0.14156332D-03 0.65146612D+00 0.94235541D+03 0.85041709D+04 0.85041709D+04 0.12166945D+01  1  2  5  2  5  2        2 -.473515032154D+02
0.187498966860D-01 0.000000000000D+00 0.860997397554D-02 0.484524578868D+00 0.000000000000D+00  5 -2 2 -13 13 21 2 0.14156332D-03 0.35546311D+00 0.94235541D+03 0.85041709D+04 0.85041709D+04 0.12166945D+01  1  2  6  2  5  2        2 0.875969491825D+03
0.163368454893D-02 0.000000000000D+00 0.000000000000D+00 0.484524578868D+00 0.000000000000D+00  5 -2 21 -13 13 -2 2 0.14156332D-03 0.76033630D+00 0.23818809D+04 0.94377688D+04 0.94377688D+04 0.12119456D+01  1  2 12  4  5  2        2 -.183282572708D-01
-.398805143021D-03 0.000000000000D+00 -.677762587761D-03 0.484524578868D+00 0.000000000000D+00  5 -2 21 -13 13 -2 2 0.14156332D-03 0.65146612D+00 0.94235541D+03 0.85041709D+04 0.85041709D+04 0.12166945D+01  1  2  5  4  5  2        2 -.490671164144D-01
  </mgrwgt>
  </event>
  <event npLO=' -1 ' npNLO=' 0 '>
  5     66 0.12166989E+02 0.87580544E+02 0.75467711E-02 0.11842591E+00
       -2 -1    0    0    0  501 0.00000000E+00 0.00000000E+00 0.10769908E+03 0.10769908E+03 0.00000000E+00 0.0000E+00 0.9000E+01
        2 -1    0    0  501    0 0.00000000E+00 0.00000000E+00 -.17805055E+02 0.17805055E+02 0.00000000E+00 0.0000E+00 0.9000E+01
       23  2    1    2    0    0 0.00000000E+00 0.00000000E+00 0.89894021E+02 0.12550413E+03 0.87580544E+02 0.0000E+00 0.0000E+00
      -11  1    3    3    0    0 0.10734085E+02 0.39979955E+02 0.65413065E+02 0.77411152E+02 0.00000000E+00 0.0000E+00 0.9000E+01
       11  1    3    3    0    0 -.10734085E+02 -.39979955E+02 0.24480956E+02 0.48092978E+02 0.00000000E+00 0.0000E+00 0.9000E+01
#aMCatNLO 1  0  0  2  1 0.93072543D+02 0.00000000D+00  -5  5  0 0.00000000D+00 0.00000000D+00 0.00000000D+00 0.00000000D+00 0.00000000D+00
  <mgrwgt>
 0.2641433057D+03    3    2    0
 0.437902719746831D+02 0.000000000000000D+00 0.000000000000000D+00 0.437902719746831D+02
 0.437902719746831D+02 0.000000000000000D+00 0.000000000000000D+00 -.437902719746831D+02
 0.437902719746831D+02 0.107340845186267D+02 0.399799548313385D+02 0.142818262434407D+02
 0.437902719746831D+02 -.107340845186267D+02 -.399799548313385D+02 -.142818262434407D+02
 0.000000000000000D+00 -.000000000000000D+00 0.000000000000000D+00 0.000000000000000D+00
 0.118599160723107D+03 0.000000000000000D+00 0.000000000000000D+00 0.118599160723107D+03
 0.454053163521857D+02 0.000000000000000D+00 0.000000000000000D+00 -.454053163521857D+02
 0.374165431411940D+02 0.115276566190264D+02 0.326058318811654D+02 0.142818262434407D+02
 0.516373712589666D+02 -.980154314055327D+01 -.486454242632582D+02 -.142818262434407D+02
 0.749505626751316D+02 -.172611347847308D+01 0.160395923820929D+02 0.731938443709208D+02
0.254099447491D-01 0.000000000000D+00 0.000000000000D+00 0.612265904001D-01 0.000000000000D+00  5 -2 2 -11 11 21 0 0.16569089D-01 0.27392392D-02 0.17136174D+04 0.76703517D+04 0.76703517D+04 0.12214583D+01  1  2  2  2  5  2        2 0.267401741732D+03
-.140623658391D-02 0.000000000000D+00 -.975808784288D-04 0.612265904001D-01 0.000000000000D+00  5 -2 2 -11 11 21 2 0.16569089D-01 0.27392392D-02 0.17136174D+04 0.76703517D+04 0.76703517D+04 0.12214583D+01  1  2  3  2  5  2        2 -.243750575255D+02
0.134495148605D-02 0.000000000000D+00 0.000000000000D+00 0.612265904001D-01 0.000000000000D+00  5 -2 2 -11 11 21 2 0.16569089D-01 0.27392392D-02 0.17136174D+04 0.76703517D+04 0.76703517D+04 0.12214583D+01  1  2 15  2  5  2        2 0.211166214882D+02
  </mgrwgt>
  </event>
  <event npLO=' -1 ' npNLO=' 0 '>
  6     66 0.12166989E+02 0.85380904E+02 0.75467711E-02 0.11909301E+00
       -4 -1    0    0    0  501 0.00000000E+00 0.00000000E+00 0.32838104E+01 0.32838104E+01 0.00000000E+00 0.0000E+00 0.9000E+01
       21 -1    0    0  501  502 0.00000000E+00 0.00000000E+00 -.75481032E+03 0.75481032E+03 0.00000000E+00 0.0000E+00 0.9000E+01
       23  2    1    2    0    0 0.66619453E+01 0.56521707E+01 -.57691752E+03 0.58326671E+03 0.85380904E+02 0.0000E+00 0.0000E+00
      -11  1    3    3    0    0 -.10207964E+02 0.42957711E+02 -.33709456E+03 0.33997398E+03 0.00000000E+00 0.0000E+00 0.9000E+01
       11  1    3    3    0    0 0.16869910E+02 -.37305540E+02 -.23982296E+03 0.24329272E+03 0.00000000E+00 0.0000E+00 0.9000E+01
       -4  1    1    2    0  502 -.66619453E+01 -.56521707E+01 -.17460899E+03 0.17482742E+03 0.00000000E+00 0.0000E+00 0.9000E+01
#aMCatNLO 2  0  0  2  1 0.93432217D+01 0.00000000D+00  -5  5  0 0.00000000D+00 0.00000000D+00 0.00000000D+00 0.00000000D+00 0.00000000D+00
  <mgrwgt>
 0.4771780220D+01    2    2    0
 0.426904519090829D+02 0.000000000000000D+00 0.000000000000000D+00 0.426904519090829D+02
 0.426904519090829D+02 0.000000000000000D+00 0.000000000000000D+00 -.426904519090829D+02
 0.426904519090829D+02 -.136008837208616D+02 0.400790682719937D+02 -.558201869059846D+01
 0.426904519090829D+02 0.136008837208616D+02 -.400790682719937D+02 0.558201869059846D+01
 0.000000000000000D+00 -.000000000000000D+00 -.000000000000000D+00 -.000000000000000D+00
 0.443897274871839D+02 0.000000000000000D+00 0.000000000000000D+00 0.443897274871839D+02
 0.558384596218359D+02 0.000000000000000D+00 0.000000000000000D+00 -.558384596218359D+02
 0.445053523342301D+02 -.102079644102367D+02 0.429577107901609D+02 -.558201869059846D+01
 0.413213759381417D+02 0.168699097422093D+02 -.373055400986067D+02 0.558201869059846D+01
 0.144014588366481D+02 -.666194533197262D+01 -.565217069155420D+01 -.114487321346520D+02
-.122685054650D-02 0.000000000000D+00 0.000000000000D+00 0.252879722855D-01 0.000000000000D+00  5 -4 21 -11 11 -4 2 0.48586207D-03 0.12074696D+00 0.22011643D+04 0.73662273D+04 0.73662273D+04 0.12233425D+01  1  2 13  4  5  2        4 -.323702089592D+02
0.134184712052D-02 0.000000000000D+00 0.000000000000D+00 0.252879722855D-01 0.104260204266D-03  5 -4 21 -11 11 -4 2 0.50520161D-03 0.11612466D+00 0.22011643D+04 0.73662273D+04 0.73662273D+04 0.12233425D+01  1  2  1  4  5  2        4 0.371419891794D+02
  </mgrwgt>
  </event>
  <event npLO=' -1 ' npNLO=' 0 '>
  5     66 0.12166989E+02 0.54063823E+02 0.75467711E-02 0.11786635E+00
       -2 -1    0    0    0  501 0.00000000E+00 0.00000000E+00 0.19803973E+02 0.19803973E+02 0.00000000E+00 0.0000E+00 0.9000E+01
        2 -1    0    0  501    0 0.00000000E+00 0.00000000E+00 -.10658189E+03 0.10658189E+03 0.00000000E+00 0.0000E+00 0.9000E+01
       23  2    1    2    0    0 0.00000000E+00 0.00000000E+00 -.86777921E+02 0.12638587E+03 0.91885689E+02 0.0000E+00 0.0000E+00
      -13  1    3    3    0    0 -.45555290E+01 -.26320665E+02 -.94803057E+02 0.98494416E+02 0.00000000E+00 0.0000E+00 0.9000E+01
       13  1    3    3    0    0 0.45555290E+01 0.26320665E+02 0.80251366E+01 0.27891451E+02 0.00000000E+00 0.0000E+00 0.9000E+01
#aMCatNLO 1  0  0  1  2 0.40318861D+02 0.00000000D+00  -5  5  0 0.00000000D+00 0.00000000D+00 0.00000000D+00 0.00000000D+00 0.00000000D+00
  <mgrwgt>
 0.1002822503D+02    1    2    0
 0.459428445251404D+02 0.000000000000000D+00 0.000000000000000D+00 0.459428445251404D+02
 0.459428445251404D+02 0.000000000000000D+00 0.000000000000000D+00 -.459428445251404D+02
 0.459428445251404D+02 -.455552898271080D+01 -.263206648244878D+02 -.373793354936371D+02
 0.459428445251404D+02 0.455552898271080D+01 0.263206648244878D+02 0.373793354936371D+02
 0.000000000000000D+00 -.000000000000000D+00 -.000000000000000D+00 0.000000000000000D+00
 0.707860846932424D+02 0.000000000000000D+00 0.000000000000000D+00 0.707860846932424D+02
 0.617927318535841D+02 0.000000000000000D+00 0.000000000000000D+00 -.617927318535841D+02
 0.396847971639699D+02 0.274473971507515D+01 -.130435734327695D+02 -.373793354936371D+02
 0.581409442686431D+02 0.134292946299884D+02 0.424594951011497D+02 0.373793354936371D+02
 0.347530751142134D+02 -.161740343450635D+02 -.294159216683801D+02 0.899335283965825D+01
0.492514844194D-03 0.000000000000D+00 0.000000000000D+00 0.672604053273D+00 0.000000000000D+00  5 -2 2 -13 13 21 2 0.30467651D-02 0.16397214D-01 0.71353024D+03 0.84429799D+04 0.84429799D+04 0.12170260D+01  1  2 14  1  5  1       -2 0.100282250326D+02
  </mgrwgt>
  </event>
  <event npLO=' -1 ' npNLO=' 0 '>
  5     66 0.12166989E+02 0.48502990E+02 0.75467711E-02 0.11520587E+00
       -2 -1    0    0    0  501 0.00000000E+00 0.00000000E+00 0.80544687E+02 0.80544687E+02 0.00000000E+00 0.0000E+00 0.9000E+01
        2 -1    0    0  501    0 0.00000000E+00 0.00000000E+00 -.26172148E+02 0.26172148E+02 0.00000000E+00 0.0000E+00 0.9000E+01
       23  2    1    2    0    0 0.00000000E+00 0.00000000E+00 0.54372539E+02 0.10671684E+03 0.91826521E+02 0.0000E+00 0.0000E+00
      -13  1    3    3    0    0 0.12917398E+02 0.20861432E+02 -.17913344E+02 0.30380033E+02 0.00000000E+00 0.0000E+00 0.9000E+01
       13  1    3    3    0    0 -.12917398E+02 -.20861432E+02 0.72285883E+02 0.76336802E+02 0.00000000E+00 0.0000E+00 0.9000E+01
#aMCatNLO 1  0  0  1  2 0.68758443D+02 0.00000000D+00  -5  5  0 0.00000000D+00 0.00000000D+00 0.00000000D+00 0.00000000D+00 0.00000000D+00
  <mgrwgt>
 0.2875984256D+03    7    2    0
 0.459132604129582D+02 0.000000000000000D+00 0.000000000000000D+00 0.459132604129582D+02
 0.459132604129582D+02 0.000000000000000D+00 0.000000000000000D+00 -.459132604129582D+02
 0.459132604129582D+02 0.129173977182444D+02 0.208614322305722D+02 -.388068159377455D+02
 0.459132604129582D+02 -.129173977182444D+02 -.208614322305722D+02 0.388068159377455D+02
 0.000000000000000D+00 0.000000000000000D+00 -.000000000000000D+00 0.000000000000000D+00
 0.965150000261084D+02 0.000000000000000D+00 0.000000000000000D+00 0.965150000261084D+02
 0.712089502687729D+02 0.000000000000000D+00 0.000000000000000D+00 -.712089502687729D+02
 0.544321306494490D+02 -.979038514907880D+01 0.368922246882094D+02 -.388068159377455D+02
 0.526576356362663D+02 -.352236190685723D+02 -.511412624871889D+01 0.388068159377455D+02
 0.606341840091660D+02 0.450140042176511D+02 -.317780984394905D+02 0.253060497573355D+02
0.338104467827D-01 0.000000000000D+00 0.000000000000D+00 0.723145825059D+00 0.000000000000D+00  5 -2 2 -13 13 21 0 0.12391490D-01 0.40264843D-02 0.60205852D+03 0.84321099D+04 0.84321099D+04 0.12170851D+01  1  2  2  1  5  1       -2 0.338593542801D+03
-.981738370426D-03 0.000000000000D+00 -.129841018141D-03 0.723145825059D+00 0.000000000000D+00  5 -2 2 -13 13 21 2 0.12391490D-01 0.40264843D-02 0.60205852D+03 0.84321099D+04 0.84321099D+04 0.12170851D+01  1  2  3  1  5  1       -2 -.196473610687D+02
0.121605542680D-02 0.000000000000D+00 0.000000000000D+00 0.723145825059D+00 0.000000000000D+00  5 -2 2 -13 13 21 2 0.12391490D-01 0.40264843D-02 0.60205852D+03 0.84321099D+04 0.84321099D+04 0.12170851D+01  1  2 15  1  5  1       -2 0.180394391751D+02
0.189769492133D-02 0.000000000000D+00 0.000000000000D+00 0.723145825059D+00 0.000000000000D+00  5 -2 2 -13 13 21 2 0.40399563D-01 0.40264843D-02 0.41514204D+04 0.11468218D+05 0.11468218D+05 0.12032122D+01  1  2 12  1  5  1       -2 0.399113978758D+01
0.136579274546D-01 0.000000000000D+00 -.994512542804D-02 0.723145825059D+00 0.000000000000D+00  5 -2 2 -13 13 21 2 0.39322408D-01 0.40264843D-02 0.60205852D+03 0.84321099D+04 0.84321099D+04 0.12170851D+01  1  2  5  1  5  1       -2 -.280221189427D+02
0.259158523314D-03 0.000000000000D+00 0.000000000000D+00 0.723145825059D+00 0.000000000000D+00  5 21 2 -13 13 2 2 0.40399563D-01 0.40264843D-02 0.41514204D+04 0.11468218D+05 0.11468218D+05 0.12032122D+01  1  2 12  3  5  1       -2 0.619260214374D+01
0.225300195846D-02 0.000000000000D+00 -.132055391734D-02 0.723145825059D+00 0.000000000000D+00  5 21 2 -13 13 2 2 0.39322408D-01 0.40264843D-02 0.60205852D+03 0.84321099D+04 0.84321099D+04 0.12170851D+01  1  2  5  3  5  1       -2 -.315488182875D+02
  </mgrwgt>
  </event>
  <event npLO=' -1 ' npNLO=' 0 '>
  5     66 0.12166989E+02 0.41617765E+02 0.75467711E-02 0.11686983E+00
       -4 -1    0    0    0  501 0.00000000E+00 0.00000000E+00 0.60454885E+02 0.60454885E+02 0.00000000E+00 0.0000E+00 0.9000E+01
        4 -1    0    0  501    0 0.00000000E+00 0.00000000E+00 -.36605289E+02 0.36605289E+02 0.00000000E+00 0.0000E+00 0.9000E+01
       23  2    1    2    0    0 0.00000000E+00 0.00000000E+00 0.23849595E+02 0.97060174E+02 0.94084399E+02 0.0000E+00 0.0000E+00
      -13  1    3    3    0    0 0.30122391E+02 -.34949175E+02 0.21389128E+02 0.50855659E+02 0.00000000E+00 0.0000E+00 0.9000E+01
       13  1    3    3    0    0 -.30122391E+02 0.34949175E+02 0.24604672E+01 0.46204515E+02 0.00000000E+00 0.0000E+00 0.9000E+01
#aMCatNLO 1  0  0  1  2 0.42747126D+02 0.00000000D+00  -5  5  0 0.00000000D+00 0.00000000D+00 0.00000000D+00 0.00000000D+00 0.00000000D+00
  <mgrwgt>
 0.1160107144D+03    6    2    0
 0.470421996288889D+02 0.000000000000000D+00 0.000000000000000D+00 0.470421996288889D+02
 0.470421996288889D+02 0.000000000000000D+00 0.000000000000000D+00 -.470421996288889D+02
 0.470421996288889D+02 0.301223907727653D+02 -.349491753128846D+02 0.917416290493695D+01
 0.470421996288889D+02 -.301223907727653D+02 0.349491753128846D+02 -.917416290493695D+01
 0.000000000000000D+00 0.000000000000000D+00 0.000000000000000D+00 -.000000000000000D+00
 0.564542662028733D+02 0.000000000000000D+00 0.000000000000000D+00 0.564542662028733D+02
 0.677979598801116D+02 0.000000000000000D+00 0.000000000000000D+00 -.677979598801116D+02
 0.467220948341646D+02 0.198954724221498D+02 -.412669245011769D+02 0.917416290493695D+01
 0.505067888877820D+02 -.407621075909643D+02 0.283764170305433D+02 -.917416290493695D+01
 0.270233423610382D+02 0.208666351688145D+02 0.128905074706335D+02 -.113436936772384D+02
0.358232388071D-01 0.000000000000D+00 0.000000000000D+00 0.128169522919D+00 0.000000000000D+00  5 -4 4 -13 13 21 0 0.93007515D-02 0.56315830D-02 0.21288033D+04 0.88518742D+04 0.88518742D+04 0.12148606D+01  1  2  2  1  5  1       -4 0.116810547020D+03
-.198927040911D-02 0.000000000000D+00 -.137570669495D-03 0.128169522919D+00 0.000000000000D+00  5 -4 4 -13 13 21 2 0.93007515D-02 0.56315830D-02 0.21288033D+04 0.88518742D+04 0.88518742D+04 0.12148606D+01  1  2  3  1  5  1       -4 -.105168285796D+02
0.190538324564D-02 0.000000000000D+00 0.000000000000D+00 0.128169522919D+00 0.000000000000D+00  5 -4 4 -13 13 21 2 0.93007515D-02 0.56315830D-02 0.21288033D+04 0.88518742D+04 0.88518742D+04 0.12148606D+01  1  2 15  1  5  1       -4 0.916964383175D+01
0.607118664285D-02 0.000000000000D+00 0.000000000000D+00 0.128169522919D+00 0.000000000000D+00  5 -4 4 -13 13 21 2 0.16086301D-01 0.56315830D-02 0.36003777D+04 0.94534558D+04 0.94534558D+04 0.12118703D+01  1  2 12  1  5  1       -4 0.114193662493D+02
-.575304000051D-02 0.000000000000D+00 0.000000000000D+00 0.128169522919D+00 0.000000000000D+00  5 -4 4 -13 13 21 2 0.93007515D-02 0.56315830D-02 0.21288033D+04 0.88518742D+04 0.88518742D+04 0.12148606D+01  1  2  4  1  5  1       -4 -.276864656363D+02
0.368674467374D-03 0.000000000000D+00 0.000000000000D+00 0.128169522919D+00 0.000000000000D+00  5 21 4 -13 13 4 2 0.16086301D-01 0.56315830D-02 0.36003777D+04 0.94534558D+04 0.94534558D+04 0.12118703D+01  1  2 12  3  5  1       -4 0.168144514939D+02
  </mgrwgt>
  </event>
  <event npLO=' -1 ' npNLO=' 0 '>
  5     66 0.12166989E+02 0.67353529E+02 0.75467711E-02 0.11819665E+00
       -2 -1    0    0    0  501 0.00000000E+00 0.00000000E+00 0.28989961E+01 0.28989961E+01 0.00000000E+00 0.0000E+00 0.9000E+01
        2 -1    0    0  501    0 0.00000000E+00 0.00000000E+00 -.69298903E+03 0.69298903E+03 0.00000000E+00 0.0000E+00 0.9000E+01
       23  2    1    2    0    0 0.00000000E+00 0.00000000E+00 -.69009003E+03 0.69588803E+03 0.89643126E+02 0.0000E+00 0.0000E+00
      -11  1    3    3    0    0 0.34791956E+02 -.26608419E+02 -.27120207E+03 0.27471631E+03 0.00000000E+00 0.0000E+00 0.9000E+01
       11  1    3    3    0    0 -.34791956E+02 0.26608419E+02 -.41888796E+03 0.42117172E+03 0.00000000E+00 0.0000E+00 0.9000E+01
#aMCatNLO 1  0  0  2  1 0.10402211D+02 0.00000000D+00  -5  5  0 0.00000000D+00 0.00000000D+00 0.00000000D+00 0.00000000D+00 0.00000000D+00
  <mgrwgt>
 0.5137546584D+03    9    2    0
 0.448215627505460D+02 0.000000000000000D+00 0.000000000000000D+00 0.448215627505460D+02
 0.448215627505460D+02 0.000000000000000D+00 0.000000000000000D+00 -.448215627505460D+02
 0.448215627505460D+02 0.347919560804937D+02 -.266084191010608D+02 0.951232423944991D+01
 0.448215627505460D+02 -.347919560804937D+02 0.266084191010608D+02 -.951232423944991D+01
 0.000000000000000D+00 0.000000000000000D+00 0.000000000000000D+00 -.000000000000000D+00
 0.462866728266501D+02 0.000000000000000D+00 0.000000000000000D+00 0.462866728266501D+02
 0.661989167818950D+02 0.000000000000000D+00 0.000000000000000D+00 -.661989167818950D+02
 0.446823585309581D+02 0.314394995732784D+02 -.302916938785946D+02 0.951232423944991D+01
 0.455176414444691D+02 -.381756989224157D+02 0.228907706732624D+02 -.951232423944991D+01
 0.222855896331179D+02 0.673619934913736D+01 0.740092320533225D+01 -.199122439552449D+02
0.134154294069D-01 0.000000000000D+00 0.000000000000D+00 0.249279396166D+00 0.000000000000D+00  5 -2 2 -11 11 21 0 0.44599940D-03 0.10661370D+00 0.19184882D+04 0.80358899D+04 0.80358899D+04 0.12193017D+01  1  2  2  2  5  2        2 0.341382622648D+03
-.744820472976D-03 0.000000000000D+00 -.515187812860D-04 0.249279396166D+00 0.000000000000D+00  5 -2 2 -11 11 21 2 0.44599940D-03 0.10661370D+00 0.19184882D+04 0.80358899D+04 0.80358899D+04 0.12193017D+01  1  2  3  2  5  2        2 -.309698350429D+02
0.761971418882D-03 0.000000000000D+00 0.000000000000D+00 0.249279396166D+00 0.000000000000D+00  5 -2 2 -11 11 21 2 0.44599940D-03 0.10661370D+00 0.19184882D+04 0.80358899D+04 0.80358899D+04 0.12193017D+01  1  2 15  2  5  2        2 0.288268970329D+02
0.422446926906D-01 0.000000000000D+00 0.000000000000D+00 0.249279396166D+00 0.000000000000D+00  5 -2 2 -11 11 21 2 0.44599940D-03 0.16260948D+00 0.24097391D+04 0.81360400D+04 0.81360400D+04 0.12187301D+01  1  2 12  2  5  2        2 0.953109674812D+03
-.409249699226D-01 0.000000000000D+00 0.000000000000D+00 0.249279396166D+00 0.000000000000D+00  5 -2 2 -11 11 21 2 0.44599940D-03 0.10661370D+00 0.19184882D+04 0.80358899D+04 0.80358899D+04 0.12193017D+01  1  2  4  2  5  2        2 -.154827315670D+04
-.480924718599D-01 0.000000000000D+00 -.624552244554D-02 0.249279396166D+00 0.000000000000D+00  5 -2 2 -11 11 21 2 0.44599940D-03 0.15965825D+00 0.19184882D+04 0.80358899D+04 0.80358899D+04 0.12193017D+01  1  2  5  2  5  2        2 -.131919856703D+04
0.471909780049D-01 0.000000000000D+00 0.576873192438D-02 0.249279396166D+00 0.000000000000D+00  5 -2 2 -11 11 21 2 0.44599940D-03 0.10661370D+00 0.19184882D+04 0.80358899D+04 0.80358899D+04 0.12193017D+01  1  2  6  2  5  2        2 0.209793515845D+04
0.209244286866D-02 0.000000000000D+00 0.000000000000D+00 0.249279396166D+00 0.000000000000D+00  5 -2 21 -11 11 -2 2 0.44599940D-03 0.16260948D+00 0.24097391D+04 0.81360400D+04 0.81360400D+04 0.12187301D+01  1  2 12  4  5  2        2 0.333591144455D+02
-.208931479371D-02 0.000000000000D+00 -.299370645336D-03 0.249279396166D+00 0.000000000000D+00  5 -2 21 -11 11 -2 2 0.44599940D-03 0.15965825D+00 0.19184882D+04 0.80358899D+04 0.80358899D+04 0.12193017D+01  1  2  5  4  5  2        2 -.424172502101D+02
  </mgrwgt>
  </event>
  <event npLO=' -1 ' npNLO=' 0 '>
  6     66 0.12166989E+02 0.89177914E+02 0.75467711E-02 0.11630613E+00
       -2 -1    0    0    0  501 0.00000000E+00 0.00000000E+00 0.18485879E+03 0.18485879E+03 0.00000000E+00 0.0000E+00 0.9000E+01
        2 -1    0    0  502    0 0.00000000E+00 0.00000000E+00 -.57170460E+02 0.57170460E+02 0.00000000E+00 0.0000E+00 0.9000E+01
       23  2    1    2    0    0 0.45804572E+02 0.59881833E+01 0.15768336E+03 0.18695095E+03 0.89177914E+02 0.0000E+00 0.0000E+00
      -13  1    3    3    0    0 -.64996866E+01 -.31658719E+02 0.78264324E+02 0.84674819E+02 0.00000000E+00 0.0000E+00 0.9000E+01
       13  1    3    3    0    0 0.52304259E+02 0.37646903E+02 0.79419031E+02 0.10227613E+03 0.00000000E+00 0.0000E+00 0.9000E+01
       21  1    1    2  502  501 -.45804572E+02 -.59881833E+01 -.29995027E+02 0.55078297E+02 0.00000000E+00 0.0000E+00 0.9000E+01
#aMCatNLO 2  0  0  2  1 0.48254512D+02 0.00000000D+00  -5  5  0 0.00000000D+00 0.00000000D+00 0.00000000D+00 0.00000000D+00 0.00000000D+00
  <mgrwgt>
 0.5924982183D+02    2    2    0
 0.445889570147040D+02 0.000000000000000D+00 0.000000000000000D+00 0.445889570147040D+02
 0.445889570147040D+02 0.000000000000000D+00 0.000000000000000D+00 -.445889570147040D+02
 0.445889570147040D+02 -.256634833625496D+02 -.341640660453577D+02 0.127427352090395D+02
 0.445889570147040D+02 0.256634833625496D+02 0.341640660453577D+02 -.127427352090395D+02
 0.000000000000000D+00 -.000000000000000D+00 -.000000000000000D+00 -.000000000000000D+00
 0.538709173552743D+02 0.000000000000000D+00 0.000000000000000D+00 0.538709173552743D+02
 0.196181214055323D+03 0.000000000000000D+00 0.000000000000000D+00 -.196181214055323D+03
 0.347404338584354D+02 -.649968661496181D+01 -.316587194619731D+02 0.127427352090395D+02
 0.656917199157088D+02 0.523042586744450D+02 0.376469027861918D+02 -.127427352090395D+02
 0.149619977636454D+03 -.458045720594832D+02 -.598818332421876D+01 -.142310296700049D+03
-.685837770640D-01 0.000000000000D+00 0.000000000000D+00 0.176158888212D+00 0.000000000000D+00  5 -2 2 -13 13 21 2 0.23539633D-01 0.10626381D-01 0.51092009D+04 0.10086618D+05 0.10086618D+05 0.12089441D+01  1  2 13  2  5  2        2 -.106414801982D+03
0.116012433869D+00 0.000000000000D+00 0.000000000000D+00 0.176158888212D+00 0.150530012858D-02  5 -2 2 -13 13 21 2 0.28439814D-01 0.87954554D-02 0.51092009D+04 0.10086618D+05 0.10086618D+05 0.12089441D+01  1  2  1  2  5  2        2 0.165664623816D+03
  </mgrwgt>
  </event>
  <event npLO=' -1 ' npNLO=' 0 '>
  5     66 0.12166989E+02 0.92413252E+02 0.75467711E-02 0.11353955E+00
       -4 -1    0    0    0  501 0.00000000E+00 0.00000000E+00 0.25661540E+02 0.25661540E+02 0.00000000E+00 0.0000E+00 0.9000E+01
        4 -1    0    0  501    0 0.00000000E+00 0.00000000E+00 -.83200473E+02 0.83200473E+02 0.00000000E+00 0.0000E+00 0.9000E+01
       23  2    1    2    0    0 0.00000000E+00 0.00000000E+00 -.57538932E+02 0.10886201E+03 0.92413252E+02 0.0000E+00 0.0000E+00
      -13  1    3    3    0    0 0.28886786E+02 -.21925562E+02 -.62499447E+02 0.72258962E+02 0.00000000E+00 0.0000E+00 0.9000E+01
       13  1    3    3    0    0 -.28886786E+02 0.21925562E+02 0.49605144E+01 0.36603051E+02 0.00000000E+00 0.0000E+00 0.9000E+01
#aMCatNLO 1  0  0  1  1 0.98407876D+02 0.00000000D+00  -5  5  0 0.00000000D+00 0.00000000D+00 0.00000000D+00 0.00000000D+00 0.00000000D+00
  <mgrwgt>
 0.7125738823D+02    5    2    0
 0.462066259898019D+02 0.000000000000000D+00 0.000000000000000D+00 0.462066259898019D+02
 0.462066259898019D+02 0.000000000000000D+00 0.000000000000000D+00 -.462066259898019D+02
 0.462066259898019D+02 0.288867862166260D+02 -.219255617395809D+02 -.286334700977756D+02
 0.462066259898019D+02 -.288867862166260D+02 0.219255617395809D+02 0.286334700977756D+02
 0.000000000000000D+00 -.000000000000000D+00 -.000000000000000D+00 0.000000000000000D+00
 0.104593284086821D+03 0.000000000000000D+00 0.000000000000000D+00 0.104593284086821D+03
 0.891721215620606D+02 0.000000000000000D+00 0.000000000000000D+00 -.891721215620606D+02
 0.560483763781620D+02 0.473751022895706D+02 0.878319804175123D+01 -.286334700977756D+02
 0.622581633278616D+02 -.927570351893910D+01 0.544992166489319D+02 0.286334700977756D+02
 0.754588659428584D+02 -.380993987706315D+02 -.632824146906832D+02 0.154211625247608D+02
0.240177546813D-01 0.000000000000D+00 0.000000000000D+00 0.371434153210D+00 0.000000000000D+00  5 -4 4 -13 13 21 0 0.39479293D-02 0.12800073D-01 0.13151767D+04 0.85402091D+04 0.85402091D+04 0.12165006D+01  1  2  2  1  5  1       -4 0.792278831270D+02
-.123910477490D-02 0.000000000000D+00 -.922345019962D-04 0.371434153210D+00 0.000000000000D+00  5 -4 4 -13 13 21 2 0.39479293D-02 0.12800073D-01 0.13151767D+04 0.85402091D+04 0.85402091D+04 0.12165006D+01  1  2  3  1  5  1       -4 -.689128034555D+01
0.114166261067D-02 0.000000000000D+00 0.000000000000D+00 0.371434153210D+00 0.000000000000D+00  5 -4 4 -13 13 21 2 0.39479293D-02 0.12800073D-01 0.13151767D+04 0.85402091D+04 0.85402091D+04 0.12165006D+01  1  2 15  1  5  1       -4 0.557324421636D+01
0.126327654068D-01 0.000000000000D+00 -.827633568355D-02 0.371434153210D+00 0.000000000000D+00  5 -4 4 -13 13 21 2 0.17027037D-01 0.12800073D-01 0.13151767D+04 0.85402091D+04 0.85402091D+04 0.12165006D+01  1  2  5  1  5  1       -4 -.123630765272D+01
0.221350279830D-02 0.000000000000D+00 -.145651381084D-02 0.371434153210D+00 0.000000000000D+00  5 21 4 -13 13 4 2 0.17027037D-01 0.12800073D-01 0.13151767D+04 0.85402091D+04 0.85402091D+04 0.12165006D+01  1  2  5  3  5  1       -4 -.541615111217D+01
  </mgrwgt>
  </event>
  <event npLO=' -1 ' npNLO=' 0 '>
  5     66 0.12166989E+02 0.24148477E+02 0.75467711E-02 0.11697766E+00
       -2 -1    0    0    0  501 0.00000000E+00 0.00000000E+00 0.98694719E+00 0.98694719E+00 0.00000000E+00 0.0000E+00 0.9000E+01
        2 -1    0    0  501    0 0.00000000E+00 0.00000000E+00 -.17897821E+04 0.17897821E+04 0.00000000E+00 0.0000E+00 0.9000E+01
       23  2    1    2    0    0 0.00000000E+00 0.00000000E+00 -.17887952E+04 0.17907691E+04 0.84057610E+02 0.0000E+00 0.0000E+00
      -13  1    3    3    0    0 0.37088611E+02 0.18034315E+02 -.72182300E+03 0.72300016E+03 0.00000000E+00 0.0000E+00 0.9000E+01
       13  1    3    3    0    0 -.37088611E+02 -.18034315E+02 -.10669722E+04 0.10677689E+04 0.00000000E+00 0.0000E+00 0.9000E+01
#aMCatNLO 1  0  0  2  1 0.74370316D+02 0.00000000D+00  -5  5  0 0.00000000D+00 0.00000000D+00 0.00000000D+00 0.00000000D+00 0.00000000D+00
  <mgrwgt>
 0.4105017378D+03    5    2    0
 0.420288050012391D+02 0.000000000000000D+00 0.000000000000000D+00 0.420288050012391D+02
 0.420288050012391D+02 0.000000000000000D+00 0.000000000000000D+00 -.420288050012391D+02
 0.420288050012391D+02 0.370886109421313D+02 0.180343154970516D+02 0.810054644874069D+01
 0.420288050012391D+02 -.370886109421313D+02 -.180343154970516D+02 -.810054644874069D+01
 0.000000000000000D+00 0.000000000000000D+00 0.000000000000000D+00 0.000000000000000D+00
 0.795271654974363D+02 0.000000000000000D+00 0.000000000000000D+00 0.795271654974363D+02
 0.665137206859538D+02 0.000000000000000D+00 0.000000000000000D+00 -.665137206859538D+02
 0.328290233642877D+02 0.317984862905885D+02 -.991055958055053D+00 0.810054644874069D+01
 0.638023831832412D+02 -.445675906258996D+02 -.449316716013901D+02 -.810054644874069D+01
 0.494094796358612D+02 0.127691043353111D+02 0.459227275594451D+02 0.130134448114824D+02
0.156667669281D-01 0.000000000000D+00 0.000000000000D+00 0.136727039862D-01 0.000000000000D+00  5 -2 2 -13 13 21 0 0.15183803D-03 0.27535110D+00 0.17008016D+04 0.70656818D+04 0.70656818D+04 0.12252918D+01  1  2  2  2  5  2        2 0.413808312488D+03
-.869996812281D-03 0.000000000000D+00 -.601645101582D-04 0.136727039862D-01 0.000000000000D+00  5 -2 2 -13 13 21 2 0.15183803D-03 0.27535110D+00 0.17008016D+04 0.70656818D+04 0.70656818D+04 0.12252918D+01  1  2  3  2  5  2        2 -.378975756028D+02
0.872033765809D-03 0.000000000000D+00 0.000000000000D+00 0.136727039862D-01 0.000000000000D+00  5 -2 2 -13 13 21 2 0.15183803D-03 0.27535110D+00 0.17008016D+04 0.70656818D+04 0.70656818D+04 0.12252918D+01  1  2 15  2  5  2        2 0.345805734627D+02
0.111181476379D-03 0.000000000000D+00 0.000000000000D+00 0.136727039862D-01 0.000000000000D+00  5 -2 2 -13 13 21 2 0.15183803D-03 0.82455470D+00 0.50954563D+04 0.93376287D+04 0.93376287D+04 0.12124292D+01  1  2 12  2  5  2        2 0.105192187947D-01
0.138699333799D-04 0.000000000000D+00 0.000000000000D+00 0.136727039862D-01 0.000000000000D+00  5 -2 21 -13 13 -2 2 0.15183803D-03 0.82455470D+00 0.50954563D+04 0.93376287D+04 0.93376287D+04 0.12124292D+01  1  2 12  4  5  2        2 -.918107457478D-04
  </mgrwgt>
  </event>
  <event npLO=' -1 ' npNLO=' 0 '>
  5     66 0.12166989E+02 0.91398707E+02 0.75467711E-02 0.11667035E+00
       -2 -1    0    0    0  501 0.00000000E+00 0.00000000E+00 0.67514313E+01 0.67514313E+01 0.00000000E+00 0.0000E+00 0.9000E+01
        2 -1    0    0  501    0 0.00000000E+00 0.00000000E+00 -.30933158E+03 0.30933158E+03 0.00000000E+00 0.0000E+00 0.9000E+01
       23  2    1    2    0    0 0.00000000E+00 0.00000000E+00 -.30258015E+03 0.31608301E+03 0.91398707E+02 0.0000E+00 0.0000E+00
      -13  1    3    3    0    0 -.16405404E+02 0.85271630E+01 -.29581924E+03 0.29639648E+03 0.00000000E+00 0.0000E+00 0.9000E+01
       13  1    3    3    0    0 0.16405404E+02 -.85271630E+01 -.67609122E+01 0.19686536E+02 0.00000000E+00 0.0000E+00 0.9000E+01
#aMCatNLO 1  0  0  2  2 0.96215863D+02 0.00000000D+00  -5  5  0 0.00000000D+00 0.00000000D+00 0.00000000D+00 0.00000000D+00 0.00000000D+00
  <mgrwgt>
 0.3663706675D+03    3    2    0
 0.456993536124185D+02 0.000000000000000D+00 0.000000000000000D+00 0.456993536124185D+02
 0.456993536124185D+02 0.000000000000000D+00 0.000000000000000D+00 -.456993536124185D+02
 0.456993536124185D+02 -.164054035023336D+02 0.852716296137358D+01 -.417921182563012D+02
 0.456993536124185D+02 0.164054035023336D+02 -.852716296137358D+01 0.417921182563012D+02
 0.000000000000000D+00 0.000000000000000D+00 -.000000000000000D+00 0.000000000000000D+00
 0.113627090081133D+03 0.000000000000000D+00 0.000000000000000D+00 0.113627090081133D+03
 0.542872788707520D+02 0.000000000000000D+00 0.000000000000000D+00 -.542872788707520D+02
 0.547335441992262D+02 -.235218274627059D+02 0.263799800051986D+02 -.417921182563012D+02
 0.436134465751652D+02 0.100769218486939D+02 0.734896046195913D+01 0.417921182563012D+02
 0.695673781774938D+02 0.134449056140120D+02 -.337289404671577D+02 0.593398112103812D+02
0.184617894039D-01 0.000000000000D+00 0.000000000000D+00 0.970699890164D+00 0.000000000000D+00  5 -2 2 -13 13 21 0 0.10386817D-02 0.47589474D-01 0.34184977D+03 0.83537237D+04 0.83537237D+04 0.12175142D+01  1  2  2  2  5  2        2 0.355455919578D+03
-.452154540313D-05 0.000000000000D+00 -.708981324117D-04 0.970699890164D+00 0.000000000000D+00  5 -2 2 -13 13 21 2 0.10386817D-02 0.47589474D-01 0.34184977D+03 0.83537237D+04 0.83537237D+04 0.12175142D+01  1  2  3  2  5  2        2 -.659621304355D+01
0.613549944417D-03 0.000000000000D+00 0.000000000000D+00 0.970699890164D+00 0.000000000000D+00  5 -2 2 -13 13 21 2 0.10386817D-02 0.47589474D-01 0.34184977D+03 0.83537237D+04 0.83537237D+04 0.12175142D+01  1  2 15  2  5  2        2 0.175109610048D+02
  </mgrwgt>
  </event>
  <event npLO=' -1 ' npNLO=' 0 '>
  5     66 0.12166989E+02 0.91641001E+02 0.75467711E-02 0.10486390E+00
       -2 -1    0    0    0  501 0.00000000E+00 0.00000000E+00 0.10619193E+03 0.10619193E+03 0.00000000E+00 0.0000E+00 0.9000E+01
        2 -1    0    0  501    0 0.00000000E+00 0.00000000E+00 -.19770977E+02 0.19770977E+02 0.00000000E+00 0.0000E+00 0.9000E+01
       23  2    1    2    0    0 0.00000000E+00 0.00000000E+00 0.86420954E+02 0.12596291E+03 0.91641001E+02 0.0000E+00 0.0000E+00
      -13  1    3    3    0    0 -.31527728E+02 0.12802649E+02 0.85388773E+02 0.91919247E+02 0.00000000E+00 0.0000E+00 0.9000E+01
       13  1    3    3    0    0 0.31527728E+02 -.12802649E+02 0.10321812E+01 0.34043661E+02 0.00000000E+00 0.0000E+00 0.9000E+01
#aMCatNLO 1  0  0  2  2 0.20610187D+03 0.00000000D+00  -5  5  0 0.00000000D+00 0.00000000D+00 0.00000000D+00 0.00000000D+00 0.00000000D+00
  <mgrwgt>
 0.3664320295D+03    5    2    0
 0.458205004536335D+02 0.000000000000000D+00 0.000000000000000D+00 0.458205004536335D+02
 0.458205004536335D+02 0.000000000000000D+00 0.000000000000000D+00 -.458205004536335D+02
 0.458205004536335D+02 -.315277284201349D+02 0.128026491463599D+02 0.306857096597562D+02
 0.458205004536335D+02 0.315277284201349D+02 -.128026491463599D+02 -.306857096597562D+02
 0.000000000000000D+00 0.000000000000000D+00 -.000000000000000D+00 -.000000000000000D+00
 0.124665780554537D+03 0.000000000000000D+00 0.000000000000000D+00 0.124665780554537D+03
 0.549244913717305D+03 0.000000000000000D+00 0.000000000000000D+00 -.549244913717305D+03
 0.174386259943720D+03 -.154185987411760D+03 0.754694386205177D+02 0.306857096597562D+02
 0.350526605122051D+02 -.135197583387616D+02 0.102123633955385D+02 -.306857096597562D+02
 0.464471773815918D+03 0.167705745750522D+03 -.856818020160563D+02 -.424579133162768D+03
0.384453893440D-01 0.000000000000D+00 0.000000000000D+00 0.983272527711D+00 0.000000000000D+00  5 -2 2 -13 13 21 0 0.16337220D-01 0.30416888D-02 0.11579055D+04 0.83980730D+04 0.83980730D+04 0.12172709D+01  1  2  2  2  5  2        2 0.362594963247D+03
-.190594059771D-02 0.000000000000D+00 -.147640417985D-03 0.983272527711D+00 0.000000000000D+00  5 -2 2 -13 13 21 2 0.16337220D-01 0.30416888D-02 0.11579055D+04 0.83980730D+04 0.83980730D+04 0.12172709D+01  1  2  3  2  5  2        2 -.307236827078D+02
0.185567229377D-02 0.000000000000D+00 0.000000000000D+00 0.983272527711D+00 0.000000000000D+00  5 -2 2 -13 13 21 2 0.16337220D-01 0.30416888D-02 0.11579055D+04 0.83980730D+04 0.83980730D+04 0.12172709D+01  1  2 15  2  5  2        2 0.259330301799D+02
0.238205247850D+00 0.000000000000D+00 -.945956817163D-01 0.983272527711D+00 0.000000000000D+00  5 -2 2 -13 13 21 2 0.16337220D-01 0.90634807D-01 0.11579055D+04 0.83980730D+04 0.83980730D+04 0.12172709D+01  1  2  5  2  5  2        2 0.131896857377D+02
0.529837104297D-01 0.000000000000D+00 -.320230000833D-01 0.983272527711D+00 0.000000000000D+00  5 -2 21 -13 13 -2 2 0.16337220D-01 0.90634807D-01 0.11579055D+04 0.83980730D+04 0.83980730D+04 0.12172709D+01  1  2  5  4  5  2        2 -.456196693171D+01
  </mgrwgt>
  </event>
  <event npLO=' -1 ' npNLO=' 0 '>
  6     66 -.12166989E+02 0.92902618E+02 0.75467711E-02 0.11751481E+00
       -2 -1    0    0    0  502 0.00000000E+00 0.00000000E+00 0.21556602E+03 0.21556602E+03 0.00000000E+00 0.0000E+00 0.9000E+01
        2 -1    0    0  501    0 0.00000000E+00 0.00000000E+00 -.13974191E+02 0.13974191E+02 0.00000000E+00 0.0000E+00 0.9000E+01
       23  2    1    2    0    0 0.58773061E+01 -.10910741E+02 0.19270936E+03 0.21429274E+03 0.92902618E+02 0.0000E+00 0.0000E+00
      -13  1    3    3    0    0 -.18680069E+02 -.31203902E+02 0.26349707E+02 0.44910306E+02 0.00000000E+00 0.0000E+00 0.9000E+01
       13  1    3    3    0    0 0.24557375E+02 0.20293161E+02 0.16635965E+03 0.16938244E+03 0.00000000E+00 0.0000E+00 0.9000E+01
       21  1    1    2  501  502 -.58773061E+01 0.10910741E+02 0.88824732E+01 0.15247469E+02 0.00000000E+00 0.0000E+00 0.9000E+01
#aMCatNLO 2  0  0  1  2 0.27902396D+02 0.00000000D+00  -5  5  0 0.00000000D+00 0.00000000D+00 0.00000000D+00 0.00000000D+00 0.00000000D+00
  <mgrwgt>
 -.1892485353D+02    2    2    0
 0.464513088691855D+02 0.000000000000000D+00 0.000000000000000D+00 0.464513088691855D+02
 0.464513088691855D+02 0.000000000000000D+00 0.000000000000000D+00 -.464513088691855D+02
 0.464513088691855D+02 -.216704244340511D+02 -.256525497115631D+02 -.320946022534061D+02
 0.464513088691855D+02 0.216704244340511D+02 0.256525497115631D+02 0.320946022534061D+02
 0.000000000000000D+00 -.000000000000000D+00 0.000000000000000D+00 -.000000000000000D+00
 0.496411424991838D+02 0.000000000000000D+00 0.000000000000000D+00 0.496411424991838D+02
 0.606827442540791D+02 0.000000000000000D+00 0.000000000000000D+00 -.606827442540791D+02
 0.485045560007602D+02 -.186800687000272D+02 -.312039018776309D+02 -.320946022534061D+02
 0.452210188057461D+02 0.245573748197857D+02 0.202931611629598D+02 0.320946022534061D+02
 0.165983119467565D+02 -.587730611975854D+01 0.109107407146711D+02 -.110416017548953D+02
-.880883270170D-02 0.000000000000D+00 0.000000000000D+00 0.259595259673D+00 0.000000000000D+00  5 -2 2 -13 13 21 2 0.43324565D-01 0.16456825D-02 0.16248202D+04 0.87844834D+04 0.87844834D+04 0.12152097D+01  1  2 13  1  5  1       -2 -.539998013962D+02
0.508426171785D-02 0.000000000000D+00 0.000000000000D+00 0.259595259673D+00 0.137019138960D-01  5 -2 2 -13 13 21 2 0.33164003D-01 0.21498755D-02 0.16248202D+04 0.87844834D+04 0.87844834D+04 0.12152097D+01  1  2  1  1  5  1       -2 0.350749478695D+02
  </mgrwgt>
  </event>
  <event npLO=' -1 ' npNLO=' 0 '>
  5     66 0.12166989E+02 0.92218194E+02 0.75467711E-02 0.11366372E+00
       -2 -1    0    0    0  501 0.00000000E+00 0.00000000E+00 0.12526701E+01 0.12526701E+01 0.00000000E+00 0.0000E+00 0.9000E+01
        2 -1    0    0  501    0 0.00000000E+00 0.00000000E+00 -.16972136E+04 0.16972136E+04 0.00000000E+00 0.0000E+00 0.9000E+01
       23  2    1    2    0    0 0.00000000E+00 0.00000000E+00 -.16959610E+04 0.16984663E+04 0.92218194E+02 0.0000E+00 0.0000E+00
      -11  1    3    3    0    0 0.18617315E+02 0.18039418E+02 -.15502860E+04 0.15505027E+04 0.00000000E+00 0.0000E+00 0.9000E+01
       11  1    3    3    0    0 -.18617315E+02 -.18039418E+02 -.14567496E+03 0.14796357E+03 0.00000000E+00 0.0000E+00 0.9000E+01
#aMCatNLO 1  0  0  1  2 0.12766541D+03 0.00000000D+00  -5  5  0 0.00000000D+00 0.00000000D+00 0.00000000D+00 0.00000000D+00 0.00000000D+00
  <mgrwgt>
 0.4252938087D+03    3    2    0
 0.461090971247359D+02 0.000000000000000D+00 0.000000000000000D+00 0.461090971247359D+02
 0.461090971247359D+02 0.000000000000000D+00 0.000000000000000D+00 -.461090971247359D+02
 0.461090971247359D+02 0.186173148972151D+02 0.180394177282408D+02 -.381316644234459D+02
 0.461090971247359D+02 -.186173148972151D+02 -.180394177282408D+02 0.381316644234459D+02
 0.000000000000000D+00 0.000000000000000D+00 -.000000000000000D+00 -.000000000000000D+00
 0.786962840235253D+02 0.000000000000000D+00 0.000000000000000D+00 0.786962840235253D+02
 0.124792052618920D+03 0.000000000000000D+00 0.000000000000000D+00 -.124792052618920D+03
 0.669014744118025D+02 0.492040536842005D+01 0.547500964180082D+02 -.381316644234459D+02
 0.505177335050372D+02 -.303285109313161D+02 0.133491195017765D+02 0.381316644234459D+02
 0.860691287256060D+02 0.254081055628961D+02 -.680992159197846D+02 -.460957685953952D+02
0.198237922432D-01 0.000000000000D+00 0.000000000000D+00 0.520566512481D+00 0.000000000000D+00  5 -2 2 -11 11 21 0 0.19271848D-03 0.26110979D+00 0.67202501D+03 0.85041954D+04 0.85041954D+04 0.12166944D+01  1  2  2  1  5  1       -2 0.430088321595D+03
-.657270319278D-03 0.000000000000D+00 -.761285819383D-04 0.520566512481D+00 0.000000000000D+00  5 -2 2 -11 11 21 2 0.19271848D-03 0.26110979D+00 0.67202501D+03 0.85041954D+04 0.85041954D+04 0.12166944D+01  1  2  3  1  5  1       -2 -.273149977221D+02
0.701203060673D-03 0.000000000000D+00 0.000000000000D+00 0.520566512481D+00 0.000000000000D+00  5 -2 2 -11 11 21 2 0.19271848D-03 0.26110979D+00 0.67202501D+03 0.85041954D+04 0.85041954D+04 0.12166944D+01  1  2 15  1  5  1       -2 0.225204847805D+02
  </mgrwgt>
  </event>
  <event npLO=' -1 ' npNLO=' 0 '>
  5     66 0.12166989E+02 0.61315599E+02 0.75467711E-02 0.11685277E+00
       -2 -1    0    0    0  501 0.00000000E+00 0.00000000E+00 0.27662608E+01 0.27662608E+01 0.00000000E+00 0.0000E+00 0.9000E+01
        2 -1    0    0  501    0 0.00000000E+00 0.00000000E+00 -.84726694E+03 0.84726694E+03 0.00000000E+00 0.0000E+00 0.9000E+01
       23  2    1    2    0    0 0.00000000E+00 0.00000000E+00 -.84450068E+03 0.85003320E+03 0.96824818E+02 0.0000E+00 0.0000E+00
      -13  1    3    3    0    0 0.22270314E+02 -.22237081E+02 -.99291399E+02 0.10415967E+03 0.00000000E+00 0.0000E+00 0.9000E+01
       13  1    3    3    0    0 -.22270314E+02 0.22237081E+02 -.74520928E+03 0.74587354E+03 0.00000000E+00 0.0000E+00 0.9000E+01
#aMCatNLO 1  0  0  2  1 0.18207963D+02 0.00000000D+00  -5  5  0 0.00000000D+00 0.00000000D+00 0.00000000D+00 0.00000000D+00 0.00000000D+00
  <mgrwgt>
 0.5678647536D+03    6    2    0
 0.484124088756119D+02 0.000000000000000D+00 0.000000000000000D+00 0.484124088756119D+02
 0.484124088756119D+02 0.000000000000000D+00 0.000000000000000D+00 -.484124088756119D+02
 0.484124088756119D+02 0.222703144090215D+02 -.222370806619937D+02 0.367873167395333D+02
 0.484124088756119D+02 -.222703144090215D+02 0.222370806619937D+02 -.367873167395333D+02
 0.000000000000000D+00 0.000000000000000D+00 -.000000000000000D+00 0.000000000000000D+00
 0.566829102541294D+02 0.000000000000000D+00 0.000000000000000D+00 0.566829102541294D+02
 0.516818604227733D+02 0.000000000000000D+00 0.000000000000000D+00 -.516818604227733D+02
 0.455604650030814D+02 0.198287049407847D+02 -.181458468739699D+02 0.367873167395333D+02
 0.517634079919987D+02 -.248730891551471D+02 0.265983678057785D+02 -.367873167395333D+02
 0.110408976818226D+02 0.504438421436233D+01 -.845252093180857D+01 0.500104983135609D+01
0.254020581116D-01 0.000000000000D+00 0.000000000000D+00 0.843502961671D-01 0.000000000000D+00  5 -2 2 -13 13 21 0 0.42557858D-03 0.13034876D+00 0.99045466D+03 0.93750453D+04 0.93750453D+04 0.12122478D+01  1  2  2  2  5  2        2 0.550752241715D+03
-.109297029677D-02 0.000000000000D+00 -.975505916639D-04 0.843502961671D-01 0.000000000000D+00  5 -2 2 -13 13 21 2 0.42557858D-03 0.13034876D+00 0.99045466D+03 0.93750453D+04 0.93750453D+04 0.12122478D+01  1  2  3  2  5  2        2 -.418099726713D+02
0.982501669001D-03 0.000000000000D+00 0.000000000000D+00 0.843502961671D-01 0.000000000000D+00  5 -2 2 -13 13 21 2 0.42557858D-03 0.13034876D+00 0.99045466D+03 0.93750453D+04 0.93750453D+04 0.12122478D+01  1  2 15  2  5  2        2 0.313042638625D+02
0.144496260697D-01 0.000000000000D+00 0.000000000000D+00 0.843502961671D-01 0.000000000000D+00  5 -2 2 -13 13 21 2 0.42557858D-03 0.16292353D+00 0.13372915D+04 0.94719363D+04 0.94719363D+04 0.12117818D+01  1  2 12  2  5  2        2 0.345911139284D+03
-.102258770215D-01 0.000000000000D+00 0.000000000000D+00 0.843502961671D-01 0.000000000000D+00  5 -2 2 -13 13 21 2 0.42557858D-03 0.13034876D+00 0.99045466D+03 0.93750453D+04 0.93750453D+04 0.12122478D+01  1  2  4  2  5  2        2 -.325814767146D+03
0.449232682494D-03 0.000000000000D+00 0.000000000000D+00 0.843502961671D-01 0.000000000000D+00  5 -2 21 -13 13 -2 2 0.42557858D-03 0.16292353D+00 0.13372915D+04 0.94719363D+04 0.94719363D+04 0.12117818D+01  1  2 12  4  5  2        2 0.752184856590D+01
  </mgrwgt>
  </event>
  <event npLO=' -1 ' npNLO=' 0 '>
  5     66 0.12166989E+02 0.56191604E+02 0.75467711E-02 0.11747325E+00
       -2 -1    0    0    0  501 0.00000000E+00 0.00000000E+00 0.10941240E+01 0.10941240E+01 0.00000000E+00 0.0000E+00 0.9000E+01
        2 -1    0    0  501    0 0.00000000E+00 0.00000000E+00 -.19193055E+04 0.19193055E+04 0.00000000E+00 0.0000E+00 0.9000E+01
       23  2    1    2    0    0 0.00000000E+00 0.00000000E+00 -.19182113E+04 0.19203996E+04 0.91650600E+02 0.0000E+00 0.0000E+00
      -13  1    3    3    0    0 0.38793611E+02 -.15416151E+02 -.13552075E+04 0.13558503E+04 0.00000000E+00 0.0000E+00 0.9000E+01
       13  1    3    3    0    0 -.38793611E+02 0.15416151E+02 -.56300380E+03 0.56454927E+03 0.00000000E+00 0.0000E+00 0.9000E+01
#aMCatNLO 1  0  0  1  2 0.53214665D+02 0.00000000D+00  -5  5  0 0.00000000D+00 0.00000000D+00 0.00000000D+00 0.00000000D+00 0.00000000D+00
  <mgrwgt>
 0.3708712550D+03    6    2    0
 0.458252998090966D+02 0.000000000000000D+00 0.000000000000000D+00 0.458252998090966D+02
 0.458252998090966D+02 0.000000000000000D+00 0.000000000000000D+00 -.458252998090966D+02
 0.458252998090966D+02 0.387936113602844D+02 -.154161510732935D+02 -.189038648510349D+02
 0.458252998090966D+02 -.387936113602844D+02 0.154161510732935D+02 0.189038648510349D+02
 0.000000000000000D+00 -.000000000000000D+00 0.000000000000000D+00 -.000000000000000D+00
 0.504826113104080D+02 0.000000000000000D+00 0.000000000000000D+00 0.504826113104080D+02
 0.773247478112523D+02 0.000000000000000D+00 0.000000000000000D+00 -.773247478112523D+02
 0.514622899934459D+02 0.400839075538332D+02 -.261589667280471D+02 -.189038648510349D+02
 0.424839949823604D+02 -.376223916070181D+02 0.566474828418742D+01 0.189038648510349D+02
 0.338610741458540D+02 -.246151594681516D+01 0.204942184438597D+02 -.268421365008444D+02
0.184511103461D-01 0.000000000000D+00 0.000000000000D+00 0.588254177713D+00 0.000000000000D+00  5 -2 2 -13 13 21 0 0.16832676D-03 0.29527776D+00 0.17426020D+04 0.83998324D+04 0.83998324D+04 0.12172613D+01  1  2  2  1  5  1       -2 0.368650433146D+03
-.101421976764D-02 0.000000000000D+00 -.708571220180D-04 0.588254177713D+00 0.000000000000D+00  5 -2 2 -13 13 21 2 0.16832676D-03 0.29527776D+00 0.17426020D+04 0.83998324D+04 0.83998324D+04 0.12172613D+01  1  2  3  1  5  1       -2 -.333249461965D+02
0.984010741051D-03 0.000000000000D+00 0.000000000000D+00 0.588254177713D+00 0.000000000000D+00  5 -2 2 -13 13 21 2 0.16832676D-03 0.29527776D+00 0.17426020D+04 0.83998324D+04 0.83998324D+04 0.12172613D+01  1  2 15  1  5  1       -2 0.291312883814D+02
0.112706205438D-02 0.000000000000D+00 0.000000000000D+00 0.588254177713D+00 0.000000000000D+00  5 -2 2 -13 13 21 2 0.31289806D-03 0.29527776D+00 0.28383582D+04 0.88259045D+04 0.88259045D+04 0.12149948D+01  1  2 12  1  5  1       -2 0.145387451868D+02
-.981641767836D-03 0.000000000000D+00 0.000000000000D+00 0.588254177713D+00 0.000000000000D+00  5 -2 2 -13 13 21 2 0.16832676D-03 0.29527776D+00 0.17426020D+04 0.83998324D+04 0.83998324D+04 0.12172613D+01  1  2  4  1  5  1       -2 -.290611557710D+02
0.761616317143D-04 0.000000000000D+00 0.000000000000D+00 0.588254177713D+00 0.000000000000D+00  5 21 2 -13 13 2 2 0.31289806D-03 0.29527776D+00 0.28383582D+04 0.88259045D+04 0.88259045D+04 0.12149948D+01  1  2 12  3  5  1       -2 0.209368902207D+02
  </mgrwgt>
  </event>
  <event npLO=' -1 ' npNLO=' 0 '>
  6     66 0.12166989E+02 0.93218562E+02 0.75467711E-02 0.11656917E+00
       -4 -1    0    0    0  501 0.00000000E+00 0.00000000E+00 0.20434344E+03 0.20434344E+03 0.00000000E+00 0.0000E+00 0.9000E+01
       21 -1    0    0  501  502 0.00000000E+00 0.00000000E+00 -.33390826E+02 0.33390826E+02 0.00000000E+00 0.0000E+00 0.9000E+01
       23  2    1    2    0    0 0.24765789E+02 0.21959761E+02 0.17823282E+03 0.20384360E+03 0.93218562E+02 0.0000E+00 0.0000E+00
      -11  1    3    3    0    0 -.81332818E+01 0.50384337E+02 0.12561549E+03 0.13558755E+03 0.00000000E+00 0.0000E+00 0.9000E+01
       11  1    3    3    0    0 0.32899071E+02 -.28424577E+02 0.52617328E+02 0.68256052E+02 0.00000000E+00 0.0000E+00 0.9000E+01
       -4  1    1    2    0  502 -.24765789E+02 -.21959761E+02 -.72802107E+01 0.33890661E+02 0.00000000E+00 0.0000E+00 0.9000E+01
#aMCatNLO 2  0  0  2  1 0.34803526D+02 0.00000000D+00  -5  5  0 0.00000000D+00 0.00000000D+00 0.00000000D+00 0.00000000D+00 0.00000000D+00
  <mgrwgt>
 0.4719042629D+02    2    2    0
 0.466092810687397D+02 0.000000000000000D+00 0.000000000000000D+00 0.466092810687397D+02
 0.466092810687397D+02 0.000000000000000D+00 0.000000000000000D+00 -.466092810687397D+02
 0.466092810687397D+02 -.209816310359333D+02 0.389917395499157D+02 0.145547410725262D+02
 0.466092810687397D+02 0.209816310359333D+02 -.389917395499157D+02 -.145547410725262D+02
 0.000000000000000D+00 -.000000000000000D+00 -.000000000000000D+00 -.000000000000000D+00
 0.529050326976436D+02 0.000000000000000D+00 0.000000000000000D+00 0.529050326976436D+02
 0.128970645333278D+03 0.000000000000000D+00 0.000000000000000D+00 -.128970645333278D+03
 0.530713876822918D+02 -.813328182315000D+01 0.503843371457941D+02 0.145547410725262D+02
 0.458491649449667D+02 0.328990711669022D+02 -.284245765987391D+02 -.145547410725262D+02
 0.829551254036634D+02 -.247657893437522D+02 -.219597605470550D+02 -.760656126356346D+02
-.116562898443D-01 0.000000000000D+00 0.000000000000D+00 0.237809605266D+00 0.000000000000D+00  5 -4 21 -11 11 -4 2 0.27696364D-01 0.58309376D-02 0.40713136D+04 0.97852757D+04 0.97852757D+04 0.12103105D+01  1  2 13  4  5  2        4 -.182386835448D+03
0.153352088591D-01 0.000000000000D+00 0.000000000000D+00 0.237809605266D+00 0.388406486866D-03  5 -4 21 -11 11 -4 2 0.31437452D-01 0.51370502D-02 0.40713136D+04 0.97852757D+04 0.97852757D+04 0.12103105D+01  1  2  1  4  5  2        4 0.229577261734D+03
  </mgrwgt>
  </event>
  <event npLO=' -1 ' npNLO=' 0 '>
  6     66 0.12166989E+02 0.90951197E+02 0.75467711E-02 0.10828117E+00
       -2 -1    0    0    0  501 0.00000000E+00 0.00000000E+00 0.44193911E+03 0.44193911E+03 0.00000000E+00 0.0000E+00 0.9000E+01
        2 -1    0    0  502    0 0.00000000E+00 0.00000000E+00 -.95652872E+02 0.95652872E+02 0.00000000E+00 0.0000E+00 0.9000E+01
       23  2    1    2    0    0 0.72445948E+02 0.11761405E+03 0.36255958E+03 0.39850100E+03 0.90951197E+02 0.0000E+00 0.0000E+00
      -13  1    3    3    0    0 -.30351643E+01 0.76041156E+01 0.13100964E+03 0.13126523E+03 0.00000000E+00 0.0000E+00 0.9000E+01
       13  1    3    3    0    0 0.75481113E+02 0.11000993E+03 0.23154994E+03 0.26723577E+03 0.00000000E+00 0.0000E+00 0.9000E+01
       21  1    1    2  502  501 -.72445948E+02 -.11761405E+03 -.16273338E+02 0.13909098E+03 0.00000000E+00 0.0000E+00 0.9000E+01
#aMCatNLO 2  0  0  2  2 0.14948674D+03 0.00000000D+00  -5  5  0 0.00000000D+00 0.00000000D+00 0.00000000D+00 0.00000000D+00 0.00000000D+00
  <mgrwgt>
 0.2186700147D+02    1    2    0
 0.454755985394169D+02 0.000000000000000D+00 0.000000000000000D+00 0.454755985394169D+02
 0.454755985394169D+02 0.000000000000000D+00 0.000000000000000D+00 -.454755985394169D+02
 0.454755985394169D+02 -.241075008632121D+02 -.266062562953629D+02 0.279099550446415D+02
 0.454755985394169D+02 0.241075008632121D+02 0.266062562953629D+02 -.279099550446415D+02
 0.000000000000000D+00 -.000000000000000D+00 -.000000000000000D+00 -.000000000000000D+00
 0.960396262864488D+02 0.000000000000000D+00 0.000000000000000D+00 0.960396262864488D+02
 0.440159411222868D+03 0.000000000000000D+00 0.000000000000000D+00 -.440159411222868D+03
 0.290860858126129D+02 -.303516434550298D+01 0.760411564223967D+01 0.279099550446415D+02
 0.136303153335566D+03 0.754811127198562D+02 0.110009934284124D+03 -.279099550446415D+02
 0.370809798361138D+03 -.724459483743532D+02 -.117614049926363D+03 -.344119784936419D+03
0.152789590859D+00 0.000000000000D+00 0.000000000000D+00 0.952173293695D+00 0.198674194840D-02  5 -2 2 -13 13 21 2 0.67990633D-01 0.14715827D-01 0.19563378D+05 0.27353600D+05 0.27353600D+05 0.11664910D+01  1  2  1  2  5  2        2 0.218670014724D+02
  </mgrwgt>
  </event>
  <event npLO=' -1 ' npNLO=' 0 '>
  5     66 0.12166989E+02 0.87481828E+02 0.75467711E-02 0.11494507E+00
       -4 -1    0    0    0  501 0.00000000E+00 0.00000000E+00 0.11121245E+03 0.11121245E+03 0.00000000E+00 0.0000E+00 0.9000E+01
        4 -1    0    0  501    0 0.00000000E+00 0.00000000E+00 -.17203718E+02 0.17203718E+02 0.00000000E+00 0.0000E+00 0.9000E+01
       23  2    1    2    0    0 0.00000000E+00 0.00000000E+00 0.94008732E+02 0.12841617E+03 0.87481828E+02 0.0000E+00 0.0000E+00
      -13  1    3    3    0    0 -.54087862E+01 0.41924726E+02 0.30505466E+02 0.52129848E+02 0.00000000E+00 0.0000E+00 0.9000E+01
       13  1    3    3    0    0 0.54087862E+01 -.41924726E+02 0.63503266E+02 0.76286319E+02 0.00000000E+00 0.0000E+00 0.9000E+01
#aMCatNLO 1  0  0  1  1 0.19165706D+03 0.00000000D+00  -5  5  0 0.00000000D+00 0.00000000D+00 0.00000000D+00 0.00000000D+00 0.00000000D+00
  <mgrwgt>
 0.1153814973D+03    3    2    0
 0.437409142143029D+02 0.000000000000000D+00 0.000000000000000D+00 0.437409142143029D+02
 0.437409142143029D+02 0.000000000000000D+00 0.000000000000000D+00 -.437409142143029D+02
 0.437409142143029D+02 -.540878617483505D+01 0.419247261995118D+02 -.112396593148499D+02
 0.437409142143029D+02 0.540878617483505D+01 -.419247261995118D+02 0.112396593148499D+02
 0.000000000000000D+00 0.000000000000000D+00 -.000000000000000D+00 -.000000000000000D+00
 0.602838630350392D+02 0.000000000000000D+00 0.000000000000000D+00 0.602838630350392D+02
 0.230972488781241D+03 0.000000000000000D+00 0.000000000000000D+00 -.230972488781241D+03
 0.844277542515088D+02 -.219321822572346D+02 0.807508212210545D+02 -.112396593148499D+02
 0.243230513950806D+02 -.336596256964972D+01 -.213061301890690D+02 0.112396593148499D+02
 0.182505546169691D+03 0.252981448268843D+02 -.594446910319855D+02 -.170688625746202D+03
0.322423309449D-01 0.000000000000D+00 0.000000000000D+00 0.632202328559D-01 0.000000000000D+00  5 -4 4 -13 13 21 0 0.17109608D-01 0.26467258D-02 0.17869376D+04 0.76530703D+04 0.76530703D+04 0.12215631D+01  1  2  2  1  5  1       -4 0.116223948426D+03
-.178870002116D-02 0.000000000000D+00 -.123819040429D-03 0.632202328559D-01 0.000000000000D+00  5 -4 4 -13 13 21 2 0.17109608D-01 0.26467258D-02 0.17869376D+04 0.76530703D+04 0.76530703D+04 0.12215631D+01  1  2  3  1  5  1       -4 -.105902035128D+02
0.181218890351D-02 0.000000000000D+00 0.000000000000D+00 0.632202328559D-01 0.000000000000D+00  5 -4 4 -13 13 21 2 0.17109608D-01 0.26467258D-02 0.17869376D+04 0.76530703D+04 0.76530703D+04 0.12215631D+01  1  2 15  1  5  1       -4 0.974775234397D+01
  </mgrwgt>
  </event>
  <event npLO=' -1 ' npNLO=' 0 '>
  5     66 0.12166989E+02 0.46888685E+02 0.75467711E-02 0.11733700E+00
       -2 -1    0    0    0  501 0.00000000E+00 0.00000000E+00 0.40254884E+02 0.40254884E+02 0.00000000E+00 0.0000E+00 0.9000E+01
        2 -1    0    0  501    0 0.00000000E+00 0.00000000E+00 -.54570674E+02 0.54570674E+02 0.00000000E+00 0.0000E+00 0.9000E+01
       23  2    1    2    0    0 0.00000000E+00 0.00000000E+00 -.14315790E+02 0.94825558E+02 0.93738704E+02 0.0000E+00 0.0000E+00
      -13  1    3    3    0    0 0.25793802E+02 -.11126964E+02 -.45110982E+02 0.53142547E+02 0.00000000E+00 0.0000E+00 0.9000E+01
       13  1    3    3    0    0 -.25793802E+02 0.11126964E+02 0.30795192E+02 0.41683011E+02 0.00000000E+00 0.0000E+00 0.9000E+01
#aMCatNLO 1  0  0  2  1 0.17364162D+02 0.00000000D+00  -5  5  0 0.00000000D+00 0.00000000D+00 0.00000000D+00 0.00000000D+00 0.00000000D+00
  <mgrwgt>
 0.2320652747D+03    9    2    0
 0.468693518496840D+02 0.000000000000000D+00 0.000000000000000D+00 0.468693518496840D+02
 0.468693518496840D+02 0.000000000000000D+00 0.000000000000000D+00 -.468693518496840D+02
 0.468693518496840D+02 0.257938023621223D+02 -.111269643310488D+02 -.375180832038207D+02
 0.468693518496840D+02 -.257938023621223D+02 0.111269643310488D+02 0.375180832038207D+02
 0.000000000000000D+00 0.000000000000000D+00 -.000000000000000D+00 -.000000000000000D+00
 0.527979589050516D+02 0.000000000000000D+00 0.000000000000000D+00 0.527979589050516D+02
 0.554104005240805D+02 0.000000000000000D+00 0.000000000000000D+00 -.554104005240805D+02
 0.446691642878208D+02 0.237179785722829D+02 -.501848217374933D+01 -.375180832038207D+02
 0.500054471676282D+02 -.279906373221076D+02 0.175915434640590D+02 0.375180832038207D+02
 0.135337479736831D+02 0.427265874982474D+01 -.125730612903097D+02 -.261244161902889D+01
0.157321670830D-01 0.000000000000D+00 0.000000000000D+00 0.151773873523D+00 0.000000000000D+00  5 -2 2 -13 13 21 0 0.61930591D-02 0.83954883D-02 0.78912958D+03 0.87869446D+04 0.87869446D+04 0.12151969D+01  1  2  2  2  5  2        2 0.174357431028D+03
-.595547482694D-03 0.000000000000D+00 -.604156639736D-04 0.151773873523D+00 0.000000000000D+00  5 -2 2 -13 13 21 2 0.61930591D-02 0.83954883D-02 0.78912958D+03 0.87869446D+04 0.87869446D+04 0.12151969D+01  1  2  3  2  5  2        2 -.121298136812D+02
0.521886480974D-03 0.000000000000D+00 0.000000000000D+00 0.151773873523D+00 0.000000000000D+00  5 -2 2 -13 13 21 2 0.61930591D-02 0.83954883D-02 0.78912958D+03 0.87869446D+04 0.87869446D+04 0.12151969D+01  1  2 15  2  5  2        2 0.854124665988D+01
0.125470492598D-01 0.000000000000D+00 0.000000000000D+00 0.151773873523D+00 0.000000000000D+00  5 -2 2 -13 13 21 2 0.61930591D-02 0.11180893D-01 0.12454520D+04 0.89632821D+04 0.89632821D+04 0.12142900D+01  1  2 12  2  5  2        2 0.144190280236D+03
-.130117331361D-01 0.000000000000D+00 0.000000000000D+00 0.151773873523D+00 0.000000000000D+00  5 -2 2 -13 13 21 2 0.61930591D-02 0.83954883D-02 0.78912958D+03 0.87869446D+04 0.87869446D+04 0.12151969D+01  1  2  4  2  5  2        2 -.212951333746D+03
-.206038720104D-01 0.000000000000D+00 -.105069053880D-01 0.151773873523D+00 0.000000000000D+00  5 -2 2 -13 13 21 2 0.61930591D-02 0.11150199D-01 0.78912958D+03 0.87869446D+04 0.87869446D+04 0.12151969D+01  1  2  5  2  5  2        2 -.529583588952D+03
0.230599586457D-01 0.000000000000D+00 0.100976324121D-01 0.151773873523D+00 0.000000000000D+00  5 -2 2 -13 13 21 2 0.61930591D-02 0.83954883D-02 0.78912958D+03 0.87869446D+04 0.87869446D+04 0.12151969D+01  1  2  6  2  5  2        2 0.775690645095D+03
0.469125813642D-03 0.000000000000D+00 0.000000000000D+00 0.151773873523D+00 0.000000000000D+00  5 -2 21 -13 13 -2 2 0.61930591D-02 0.11180893D-01 0.12454520D+04 0.89632821D+04 0.89632821D+04 0.12142900D+01  1  2 12  4  5  2        2 0.529875596830D+02
-.549070772103D-03 0.000000000000D+00 -.390107781341D-03 0.151773873523D+00 0.000000000000D+00  5 -2 21 -13 13 -2 2 0.61930591D-02 0.11150199D-01 0.78912958D+03 0.87869446D+04 0.87869446D+04 0.12151969D+01  1  2  5  4  5  2        2 -.169037151619D+03
  </mgrwgt>
  </event>
  <event npLO=' -1 ' npNLO=' 0 '>
  6     66 0.12166989E+02 0.91892400E+02 0.75467711E-02 0.11221968E+00
       21 -1    0    0  502  501 0.00000000E+00 0.00000000E+00 0.20918351E+02 0.20918351E+02 0.00000000E+00 0.0000E+00 0.9000E+01
        2 -1    0    0  501    0 0.00000000E+00 0.00000000E+00 -.58169665E+03 0.58169665E+03 0.00000000E+00 0.0000E+00 0.9000E+01
       23  2    1    2    0    0 0.10401799E+02 -.88929168E+02 -.28206512E+03 0.30987343E+03 0.91892400E+02 0.0000E+00 0.0000E+00
      -13  1    3    3    0    0 0.76653279E+01 0.12414925E+02 -.10360138E+03 0.10462378E+03 0.00000000E+00 0.0000E+00 0.9000E+01
       13  1    3    3    0    0 0.27364709E+01 -.10134409E+03 -.17846374E+03 0.20524965E+03 0.00000000E+00 0.0000E+00 0.9000E+01
        2  1    1    2  502    0 -.10401799E+02 0.88929168E+02 -.27871317E+03 0.29274157E+03 0.00000000E+00 0.0000E+00 0.9000E+01
#aMCatNLO 2  0  0  1  2 0.14057032D+03 0.00000000D+00  -5  5  0 0.00000000D+00 0.00000000D+00 0.00000000D+00 0.00000000D+00 0.00000000D+00
  <mgrwgt>
 0.2725743690D+03    1    2    0
 0.459461997757427D+02 0.000000000000000D+00 0.000000000000000D+00 0.459461997757427D+02
 0.459461997757427D+02 0.000000000000000D+00 0.000000000000000D+00 -.459461997757427D+02
 0.459461997757427D+02 0.431742550941333D+01 0.410374911393638D+02 -.202073608318791D+02
 0.459461997757427D+02 -.431742550941333D+01 -.410374911393638D+02 0.202073608318791D+02
 0.000000000000000D+00 -.000000000000000D+00 0.000000000000000D+00 -.000000000000000D+00
 0.965113751744138D+02 0.000000000000000D+00 0.000000000000000D+00 0.965113751744138D+02
 0.126079798556719D+03 0.000000000000000D+00 0.000000000000000D+00 -.126079798556719D+03
 0.249243865872860D+02 0.766532786537230D+01 0.124149250371908D+02 -.202073608318791D+02
 0.103375291921102D+03 0.273647088826015D+01 -.101344093439435D+03 0.202073608318791D+02
 0.942914952227455D+02 -.104017987536324D+02 0.889291684022442D+02 -.295684233823055D+02
0.554197810196D-02 0.000000000000D+00 0.000000000000D+00 0.509506651518D+00 0.371415219301D-03  5 21 2 -13 13 2 2 0.32182079D-02 0.89491792D-01 0.10558296D+05 0.16460808D+05 0.16460808D+05 0.11875159D+01  1  2  1  3  5  1       -2 0.272574368987D+03
  </mgrwgt>
  </event>
  <event npLO=' -1 ' npNLO=' 0 '>
  6     66 0.12166989E+02 0.88447363E+02 0.75467711E-02 0.11786447E+00
       -2 -1    0    0    0  501 0.00000000E+00 0.00000000E+00 0.63375287E+02 0.63375287E+02 0.00000000E+00 0.0000E+00 0.9000E+01
       21 -1    0    0  501  502 0.00000000E+00 0.00000000E+00 -.90389628E+02 0.90389628E+02 0.00000000E+00 0.0000E+00 0.9000E+01
       23  2    1    2    0    0 -.24728540E+02 -.32130996E+01 -.61961563E+02 0.11083319E+03 0.88447363E+02 0.0000E+00 0.0000E+00
      -11  1    3    3    0    0 -.99532588E+00 0.36712094E+02 -.51448447E+02 0.63211638E+02 0.00000000E+00 0.0000E+00 0.9000E+01
       11  1    3    3    0    0 -.23733214E+02 -.39925194E+02 -.10513116E+02 0.47621552E+02 0.00000000E+00 0.0000E+00 0.9000E+01
       -2  1    1    2    0  502 0.24728540E+02 0.32130996E+01 0.34947222E+02 0.42931725E+02 0.00000000E+00 0.0000E+00 0.9000E+01
#aMCatNLO 2  0  0  2  2 0.96292662D+02 0.00000000D+00  -5  5  0 0.00000000D+00 0.00000000D+00 0.00000000D+00 0.00000000D+00 0.00000000D+00
  <mgrwgt>
 0.5781231927D+02    1    2    0
 0.442236813643217D+02 0.000000000000000D+00 0.000000000000000D+00 0.442236813643217D+02
 0.442236813643217D+02 0.000000000000000D+00 0.000000000000000D+00 -.442236813643217D+02
 0.442236813643217D+02 0.107657379050437D+02 0.382402665213312D+02 -.194297425909485D+02
 0.442236813643217D+02 -.107657379050437D+02 -.382402665213312D+02 0.194297425909485D+02
 0.000000000000000D+00 0.000000000000000D+00 0.000000000000000D+00 0.000000000000000D+00
 0.119167222561219D+03 0.000000000000000D+00 0.000000000000000D+00 0.119167222561219D+03
 0.480708411963310D+02 0.000000000000000D+00 0.000000000000000D+00 -.480708411963310D+02
 0.415485671722280D+02 -.995325880793404D+00 0.367120942375350D+02 -.194297425909485D+02
 0.503468118139969D+02 -.237332142334079D+02 -.399251938609528D+02 0.194297425909485D+02
 0.753426847713252D+02 0.247285401142013D+02 0.321309962341778D+01 0.710963813648881D+02
0.145774119412D-02 0.000000000000D+00 0.000000000000D+00 0.119952546766D+00 0.443575620330D-04  5 -2 21 -11 11 -2 2 0.97500442D-02 0.13906097D-01 0.29218672D+04 0.84447607D+04 0.84447607D+04 0.12170163D+01  1  2  1  4  5  2        2 0.578123192741D+02
  </mgrwgt>
  </event>
  <event npLO=' -1 ' npNLO=' 0 '>
  5     66 0.12166989E+02 0.79394506E+02 0.75467711E-02 0.11743296E+00
       -2 -1    0    0    0  501 0.00000000E+00 0.00000000E+00 0.20061257E+01 0.20061257E+01 0.00000000E+00 0.0000E+00 0.9000E+01
        2 -1    0    0  501    0 0.00000000E+00 0.00000000E+00 -.10990022E+04 0.10990022E+04 0.00000000E+00 0.0000E+00 0.9000E+01
       23  2    1    2    0    0 0.00000000E+00 0.00000000E+00 -.10969961E+04 0.11010083E+04 0.93909245E+02 0.0000E+00 0.0000E+00
      -13  1    3    3    0    0 0.29507854E+02 -.35097306E+02 -.42997235E+03 0.43241041E+03 0.00000000E+00 0.0000E+00 0.9000E+01
       13  1    3    3    0    0 -.29507854E+02 0.35097306E+02 -.66702371E+03 0.66859791E+03 0.00000000E+00 0.0000E+00 0.9000E+01
#aMCatNLO 1  0  0  2  1 0.71621700D+01 0.00000000D+00  -5  5  0 0.00000000D+00 0.00000000D+00 0.00000000D+00 0.00000000D+00 0.00000000D+00
  <mgrwgt>
 0.7746476321D+03   11    2    0
 0.469546224211398D+02 0.000000000000000D+00 0.000000000000000D+00 0.469546224211398D+02
 0.469546224211398D+02 0.000000000000000D+00 0.000000000000000D+00 -.469546224211398D+02
 0.469546224211398D+02 0.295078543615591D+02 -.350973056711938D+02 0.101095119719801D+02
 0.469546224211398D+02 -.295078543615591D+02 0.350973056711938D+02 -.101095119719801D+02
 0.000000000000000D+00 0.000000000000000D+00 -.000000000000000D+00 -.000000000000000D+00
 0.479681836584327D+02 0.000000000000000D+00 0.000000000000000D+00 0.479681836584327D+02
 0.604083567575437D+02 0.000000000000000D+00 0.000000000000000D+00 -.604083567575437D+02
 0.438796079041990D+02 0.266990266461029D+02 -.333223608657208D+02 0.101095119719801D+02
 0.502812815018926D+02 -.325146382677828D+02 0.369973422758472D+02 -.101095119719801D+02
 0.142156510098848D+02 0.581561162167989D+01 -.367498141012641D+01 -.124401730991110D+02
0.190910137522D-01 0.000000000000D+00 0.000000000000D+00 0.143477408099D+00 0.000000000000D+00  5 -2 2 -13 13 21 0 0.30863473D-03 0.16907726D+00 0.21025343D+04 0.88189463D+04 0.88189463D+04 0.12150308D+01  1  2  2  2  5  2        2 0.453921191396D+03
-.105988557281D-02 0.000000000000D+00 -.733145195876D-04 0.143477408099D+00 0.000000000000D+00  5 -2 2 -13 13 21 2 0.30863473D-03 0.16907726D+00 0.21025343D+04 0.88189463D+04 0.88189463D+04 0.12150308D+01  1  2  3  2  5  2        2 -.408933154503D+02
0.103295279182D-02 0.000000000000D+00 0.000000000000D+00 0.143477408099D+00 0.000000000000D+00  5 -2 2 -13 13 21 2 0.30863473D-03 0.16907726D+00 0.21025343D+04 0.88189463D+04 0.88189463D+04 0.12150308D+01  1  2 15  2  5  2        2 0.362582239951D+02
0.718188803669D-01 0.000000000000D+00 0.000000000000D+00 0.143477408099D+00 0.000000000000D+00  5 -2 2 -13 13 21 2 0.30863473D-03 0.22221777D+00 0.24419952D+04 0.88662731D+04 0.88662731D+04 0.12147864D+01  1  2 12  2  5  2        2 0.165331847414D+04
-.756556951499D-01 0.000000000000D+00 0.000000000000D+00 0.143477408099D+00 0.000000000000D+00  5 -2 2 -13 13 21 2 0.30863473D-03 0.16907726D+00 0.21025343D+04 0.88189463D+04 0.88189463D+04 0.12150308D+01  1  2  4  2  5  2        2 -.265563069578D+04
-.958145340642D-01 0.000000000000D+00 -.114434474293D-01 0.143477408099D+00 0.000000000000D+00  5 -2 2 -13 13 21 2 0.30863473D-03 0.21936219D+00 0.21025343D+04 0.88189463D+04 0.88189463D+04 0.12150308D+01  1  2  5  2  5  2        2 -.264132084403D+04
0.959021769904D-01 0.000000000000D+00 0.110662243606D-01 0.143477408099D+00 0.000000000000D+00  5 -2 2 -13 13 21 2 0.30863473D-03 0.16907726D+00 0.21025343D+04 0.88189463D+04 0.88189463D+04 0.12150308D+01  1  2  6  2  5  2        2 0.392324454848D+04
0.246248970575D-02 0.000000000000D+00 0.000000000000D+00 0.143477408099D+00 0.243664497140D-01  5 -2 2 -13 13 21 2 0.31529691D-03 0.21752234D+00 0.24419952D+04 0.88662731D+04 0.88662731D+04 0.12147864D+01  1  2 11  2  5  2        2 0.571220625084D+02
0.259467806121D-02 0.000000000000D+00 0.000000000000D+00 0.143477408099D+00 0.000000000000D+00  5 -2 21 -13 13 -2 2 0.30863473D-03 0.22221777D+00 0.24419952D+04 0.88662731D+04 0.88662731D+04 0.12147864D+01  1  2 12  4  5  2        2 0.248426065410D+02
-.313614717777D-02 0.000000000000D+00 -.399033497473D-03 0.143477408099D+00 0.000000000000D+00  5 -2 21 -13 13 -2 2 0.30863473D-03 0.21936219D+00 0.21025343D+04 0.88189463D+04 0.88189463D+04 0.12150308D+01  1  2  5  4  5  2        2 -.371428419169D+02
0.926813204252D-04 0.000000000000D+00 0.000000000000D+00 0.143477408099D+00 0.895334632704D-03  5 -2 21 -13 13 -2 2 0.31529691D-03 0.21752234D+00 0.24419952D+04 0.88662731D+04 0.88662731D+04 0.12147864D+01  1  2 11  4  5  2        2 0.928222195242D+00
  </mgrwgt>
  </event>
  <event npLO=' -1 ' npNLO=' 0 '>
  5     66 0.12166989E+02 0.46949249E+02 0.75467711E-02 0.11803436E+00
       -2 -1    0    0    0  501 0.00000000E+00 0.00000000E+00 0.26675793E+02 0.26675793E+02 0.00000000E+00 0.0000E+00 0.9000E+01
        2 -1    0    0  501    0 0.00000000E+00 0.00000000E+00 -.77569633E+02 0.77569633E+02 0.00000000E+00 0.0000E+00 0.9000E+01
       23  2    1    2    0    0 0.00000000E+00 0.00000000E+00 -.50893841E+02 0.10424543E+03 0.90977612E+02 0.0000E+00 0.0000E+00
      -13  1    3    3    0    0 -.32479861E+02 -.62745407E+00 -.61932334E+02 0.69935320E+02 0.00000000E+00 0.0000E+00 0.9000E+01
       13  1    3    3    0    0 0.32479861E+02 0.62745407E+00 0.11038493E+02 0.34310106E+02 0.00000000E+00 0.0000E+00 0.9000E+01
#aMCatNLO 1  0  0  1  2 0.66366523D+01 0.00000000D+00  -5  5  0 0.00000000D+00 0.00000000D+00 0.00000000D+00 0.00000000D+00 0.00000000D+00
  <mgrwgt>
 0.5847410025D+03    8    2    0
 0.454888059722303D+02 0.000000000000000D+00 0.000000000000000D+00 0.454888059722303D+02
 0.454888059722303D+02 0.000000000000000D+00 0.000000000000000D+00 -.454888059722303D+02
 0.454888059722303D+02 -.324798606899943D+02 -.627454068698002D+00 -.318417402120150D+02
 0.454888059722303D+02 0.324798606899943D+02 0.627454068698002D+00 0.318417402120150D+02
 0.000000000000000D+00 0.000000000000000D+00 0.000000000000000D+00 -.000000000000000D+00
 0.461865179944199D+02 0.000000000000000D+00 0.000000000000000D+00 0.461865179944199D+02
 0.485782133463613D+02 0.000000000000000D+00 0.000000000000000D+00 -.485782133463613D+02
 0.458989461925481D+02 -.329986749128246D+02 -.197592911175825D+01 -.318417402120150D+02
 0.451241577115451D+02 0.319654449918471D+02 -.709588556937219D+00 0.318417402120150D+02
 0.374162743668804D+01 0.103322992097751D+01 0.268551766869547D+01 -.239169535194137D+01
0.267569682903D-01 0.000000000000D+00 0.000000000000D+00 0.806052365859D+00 0.000000000000D+00  5 -2 2 -13 13 21 0 0.41039681D-02 0.11933790D-01 0.10553350D+04 0.82769259D+04 0.82769259D+04 0.12179391D+01  1  2  2  1  5  1       -2 0.348790366047D+03
-.128165218207D-02 0.000000000000D+00 -.102753803506D-03 0.806052365859D+00 0.000000000000D+00  5 -2 2 -13 13 21 2 0.41039681D-02 0.11933790D-01 0.10553350D+04 0.82769259D+04 0.82769259D+04 0.12179391D+01  1  2  3  1  5  1       -2 -.288749667941D+02
0.132695819774D-02 0.000000000000D+00 0.000000000000D+00 0.806052365859D+00 0.000000000000D+00  5 -2 2 -13 13 21 2 0.41039681D-02 0.11933790D-01 0.10553350D+04 0.82769259D+04 0.82769259D+04 0.12179391D+01  1  2 15  1  5  1       -2 0.256587768391D+02
0.210661051355D-01 0.000000000000D+00 0.000000000000D+00 0.806052365859D+00 0.000000000000D+00  5 -2 2 -13 13 21 2 0.44499145D-02 0.11933790D-01 0.11528919D+04 0.82852054D+04 0.82852054D+04 0.12178931D+01  1  2 12  1  5  1       -2 0.362407921869D+03
-.122873894388D-01 0.000000000000D+00 0.000000000000D+00 0.806052365859D+00 0.000000000000D+00  5 -2 2 -13 13 21 2 0.41039681D-02 0.11933790D-01 0.10553350D+04 0.82769259D+04 0.82769259D+04 0.12179391D+01  1  2  4  1  5  1       -2 -.237595565621D+03
0.109470896040D-02 0.000000000000D+00 0.000000000000D+00 0.806052365859D+00 0.771420506082D+00  5 -2 2 -13 13 21 2 0.41669152D-02 0.12744282D-01 0.11528919D+04 0.82852054D+04 0.82852054D+04 0.12178931D+01  1  2 11  1  5  1       -2 0.191373497998D+02
0.307584194115D-03 0.000000000000D+00 0.000000000000D+00 0.806052365859D+00 0.000000000000D+00  5 21 2 -13 13 2 2 0.44499145D-02 0.11933790D-01 0.11528919D+04 0.82852054D+04 0.82852054D+04 0.12178931D+01  1  2 12  3  5  1       -2 0.861997051231D+02
0.313886181510D-04 0.000000000000D+00 0.000000000000D+00 0.806052365859D+00 0.221674176988D-02  5 21 2 -13 13 2 2 0.41669152D-02 0.12744282D-01 0.11528919D+04 0.82852054D+04 0.82852054D+04 0.12178931D+01  1  2 11  3  5  1       -2 0.901741522273D+01
  </mgrwgt>
  </event>
  <event npLO=' -1 ' npNLO=' 0 '>
  5     66 0.12166989E+02 0.68716443E+02 0.75467711E-02 0.11517867E+00
       -2 -1    0    0    0  501 0.00000000E+00 0.00000000E+00 0.11743977E+01 0.11743977E+01 0.00000000E+00 0.0000E+00 0.9000E+01
        2 -1    0    0  501    0 0.00000000E+00 0.00000000E+00 -.20707425E+04 0.20707425E+04 0.00000000E+00 0.0000E+00 0.9000E+01
       23  2    1    2    0    0 0.00000000E+00 0.00000000E+00 -.20695681E+04 0.20719169E+04 0.98628095E+02 0.0000E+00 0.0000E+00
      -11  1    3    3    0    0 0.58139692E+01 0.34156176E+02 -.29759935E+03 0.29960944E+03 0.00000000E+00 0.0000E+00 0.9000E+01
       11  1    3    3    0    0 -.58139692E+01 -.34156176E+02 -.17719688E+04 0.17723075E+04 0.00000000E+00 0.0000E+00 0.9000E+01
#aMCatNLO 1  0  0  2  1 0.54678787D+02 0.00000000D+00  -5  5  0 0.00000000D+00 0.00000000D+00 0.00000000D+00 0.00000000D+00 0.00000000D+00
  <mgrwgt>
 0.1204125118D+04    8    2    0
 0.493140472602526D+02 0.000000000000000D+00 0.000000000000000D+00 0.493140472602526D+02
 0.493140472602526D+02 0.000000000000000D+00 0.000000000000000D+00 -.493140472602526D+02
 0.493140472602526D+02 0.581396923857668D+01 0.341561762507378D+02 0.350917175813303D+02
 0.493140472602526D+02 -.581396923857668D+01 -.341561762507378D+02 -.350917175813303D+02
 0.000000000000000D+00 -.000000000000000D+00 0.000000000000000D+00 -.000000000000000D+00
 0.697715931010965D+02 0.000000000000000D+00 0.000000000000000D+00 0.697715931010965D+02
 0.811623470300567D+02 0.000000000000000D+00 0.000000000000000D+00 -.811623470300567D+02
 0.467438522826551D+02 0.214465083712879D+02 0.222172537028120D+02 0.350917175813303D+02
 0.605176622880728D+02 0.120601307125662D+02 -.478070293283445D+02 -.350917175813303D+02
 0.436724255604252D+02 -.335066390838541D+02 0.255897756255326D+02 -.113907539289602D+02
0.368844191464D-01 0.000000000000D+00 0.000000000000D+00 0.534248606195D-01 0.000000000000D+00  5 -2 2 -11 11 21 0 0.18067657D-03 0.31857577D+00 0.12004466D+04 0.97275010D+04 0.97275010D+04 0.12105778D+01  1  2  2  2  5  2        2 0.563939361688D+03
-.173870472916D-02 0.000000000000D+00 -.141645881413D-03 0.534248606195D-01 0.000000000000D+00  5 -2 2 -11 11 21 2 0.18067657D-03 0.31857577D+00 0.12004466D+04 0.97275010D+04 0.97275010D+04 0.12105778D+01  1  2  3  2  5  2        2 -.455987752282D+02
0.180560541820D-02 0.000000000000D+00 0.000000000000D+00 0.534248606195D-01 0.000000000000D+00  5 -2 2 -11 11 21 2 0.18067657D-03 0.31857577D+00 0.12004466D+04 0.97275010D+04 0.97275010D+04 0.12105778D+01  1  2 15  2  5  2        2 0.404573744855D+02
0.747291445772D-02 0.000000000000D+00 0.000000000000D+00 0.534248606195D-01 0.000000000000D+00  5 -2 2 -11 11 21 2 0.18067657D-03 0.74183050D+00 0.37420924D+04 0.11505033D+05 0.11505033D+05 0.12030702D+01  1  2 12  2  5  2        2 0.200648554254D+01
-.718574163433D-02 0.000000000000D+00 -.105787544538D-01 0.534248606195D-01 0.000000000000D+00  5 -2 2 -11 11 21 2 0.18067657D-03 0.57900451D+00 0.12004466D+04 0.97275010D+04 0.97275010D+04 0.12105778D+01  1  2  5  2  5  2        2 -.621621114258D+02
0.127963040410D-01 0.000000000000D+00 0.893592445897D-02 0.534248606195D-01 0.000000000000D+00  5 -2 2 -11 11 21 2 0.18067657D-03 0.31857577D+00 0.12004466D+04 0.97275010D+04 0.97275010D+04 0.12105778D+01  1  2  6  2  5  2        2 0.705640535311D+03
0.688405004844D-03 0.000000000000D+00 0.000000000000D+00 0.534248606195D-01 0.000000000000D+00  5 -2 21 -11 11 -2 2 0.18067657D-03 0.74183050D+00 0.37420924D+04 0.11505033D+05 0.11505033D+05 0.12030702D+01  1  2 12  4  5  2        2 -.504507738277D-02
0.100630587044D-03 0.000000000000D+00 -.691743372971D-03 0.534248606195D-01 0.000000000000D+00  5 -2 21 -11 11 -2 2 0.18067657D-03 0.57900451D+00 0.12004466D+04 0.97275010D+04 0.97275010D+04 0.12105778D+01  1  2  5  4  5  2        2 -.152706975919D+00
  </mgrwgt>
  </event>
  <event npLO=' -1 ' npNLO=' 0 '>
  5     66 -.12166989E+02 0.45757017E+02 0.75467711E-02 0.11821311E+00
       -2 -1    0    0    0  501 0.00000000E+00 0.00000000E+00 0.65416310E+03 0.65416310E+03 0.00000000E+00 0.0000E+00 0.9000E+01
        2 -1    0    0  501    0 0.00000000E+00 0.00000000E+00 -.31036101E+01 0.31036101E+01 0.00000000E+00 0.0000E+00 0.9000E+01
       23  2    1    2    0    0 0.00000000E+00 0.00000000E+00 0.65105949E+03 0.65726671E+03 0.90116972E+02 0.0000E+00 0.0000E+00
      -13  1    3    3    0    0 0.84146633E+01 -.43922846E+02 0.28541944E+03 0.28890185E+03 0.00000000E+00 0.0000E+00 0.9000E+01
       13  1    3    3    0    0 -.84146633E+01 0.43922846E+02 0.36564004E+03 0.36836485E+03 0.00000000E+00 0.0000E+00 0.9000E+01
#aMCatNLO 1  0  0  2  1 0.12854762D+00 0.00000000D+00  -5  5  0 0.00000000D+00 0.00000000D+00 0.00000000D+00 0.00000000D+00 0.00000000D+00
  <mgrwgt>
 -.3587233857D+03    9    2    0
 0.450584860272469D+02 0.000000000000000D+00 0.000000000000000D+00 0.450584860272469D+02
 0.450584860272469D+02 0.000000000000000D+00 0.000000000000000D+00 -.450584860272469D+02
 0.450584860272469D+02 0.841466334086780D+01 -.439228463208171D+02 -.549947042953653D+01
 0.450584860272469D+02 -.841466334086780D+01 0.439228463208171D+02 0.549947042953653D+01
 0.000000000000000D+00 -.000000000000000D+00 -.000000000000000D+00 -.000000000000000D+00
 0.450614190751814D+02 0.000000000000000D+00 0.000000000000000D+00 0.450614190751814D+02
 0.464863432038096D+02 0.000000000000000D+00 0.000000000000000D+00 -.464863432038096D+02
 0.450630463928814D+02 0.847842402287018D+01 -.439152627373451D+02 -.549947042953653D+01
 0.450540171542593D+02 -.835090904702147D+01 0.439304291444930D+02 0.549947042953653D+01
 0.143069873185037D+01 -.127514975848706D+00 -.151664071479277D-01 -.142492412862818D+01
0.330434140824D-01 0.000000000000D+00 0.000000000000D+00 0.348266664977D+00 0.000000000000D+00  5 -2 2 -13 13 21 0 0.10064048D+00 0.47747847D-03 0.20000230D+04 0.81210687D+04 0.81210687D+04 0.12188150D+01  1  2  2  2  5  2        2 0.125870239734D+03
-.183561953091D-02 0.000000000000D+00 -.126895410607D-03 0.348266664977D+00 0.000000000000D+00  5 -2 2 -13 13 21 2 0.10064048D+00 0.47747847D-03 0.20000230D+04 0.81210687D+04 0.81210687D+04 0.12188150D+01  1  2  3  2  5  2        2 -.113933672742D+02
0.206225430791D-02 0.000000000000D+00 0.000000000000D+00 0.348266664977D+00 0.000000000000D+00  5 -2 2 -13 13 21 2 0.10064048D+00 0.47747847D-03 0.20000230D+04 0.81210687D+04 0.81210687D+04 0.12188150D+01  1  2 15  2  5  2        2 0.116695996449D+02
-.413116007706D+02 0.000000000000D+00 0.000000000000D+00 0.348266664977D+00 0.000000000000D+00  5 -2 2 -13 13 21 2 0.10064048D+00 0.47747847D-03 0.20000230D+04 0.81210687D+04 0.81210687D+04 0.12188150D+01  1  2  4  2  5  2        2 -.233768376593D+06
-.423183885160D+02 0.000000000000D+00 -.171746202231D+00 0.348266664977D+00 0.000000000000D+00  5 -2 2 -13 13 21 2 0.10064048D+00 0.49263550D-03 0.20000230D+04 0.81210687D+04 0.81210687D+04 0.12188150D+01  1  2  5  2  5  2        2 -.231006889147D+06
0.423031813381D+02 0.000000000000D+00 0.171662373352D+00 0.348266664977D+00 0.000000000000D+00  5 -2 2 -13 13 21 2 0.10064048D+00 0.47747847D-03 0.20000230D+04 0.81210687D+04 0.81210687D+04 0.12188150D+01  1  2  6  2  5  2        2 0.240740592478D+06
0.413316948318D+02 0.000000000000D+00 0.000000000000D+00 0.348266664977D+00 0.167407284028D+03  5 -2 2 -13 13 21 2 0.10064703D+00 0.49260927D-03 0.20057741D+04 0.81210851D+04 0.81210851D+04 0.12188149D+01  1  2 11  2  5  2        2 0.224325946439D+06
-.236679823381D+00 0.000000000000D+00 -.960793816565D-03 0.348266664977D+00 0.000000000000D+00  5 -2 21 -13 13 -2 2 0.10064048D+00 0.49263550D-03 0.20000230D+04 0.81210687D+04 0.81210687D+04 0.12188150D+01  1  2  5  4  5  2        2 -.257776309592D+05
0.230877574045D+00 0.000000000000D+00 0.000000000000D+00 0.348266664977D+00 0.935042838210D+00  5 -2 21 -13 13 -2 2 0.10064703D+00 0.49260927D-03 0.20057741D+04 0.81210851D+04 0.81210851D+04 0.12188149D+01  1  2 11  4  5  2        2 0.250014879237D+05
  </mgrwgt>
  </event>
  <event npLO=' -1 ' npNLO=' 0 '>
  5     66 0.12166989E+02 0.59446906E+02 0.75467711E-02 0.11870229E+00
       -2 -1    0    0    0  501 0.00000000E+00 0.00000000E+00 0.33424638E+02 0.33424638E+02 0.00000000E+00 0.0000E+00 0.9000E+01
        2 -1    0    0  501    0 0.00000000E+00 0.00000000E+00 -.57111293E+02 0.57111293E+02 0.00000000E+00 0.0000E+00 0.9000E+01
       23  2    1    2    0    0 0.00000000E+00 0.00000000E+00 -.23686655E+02 0.90535931E+02 0.87382477E+02 0.0000E+00 0.0000E+00
      -13  1    3    3    0    0 -.41777013E+02 0.55909305E+01 -.23762709E+02 0.48386399E+02 0.00000000E+00 0.0000E+00 0.9000E+01
       13  1    3    3    0    0 0.41777013E+02 -.55909305E+01 0.76053771E-01 0.42149532E+02 0.00000000E+00 0.0000E+00 0.9000E+01
#aMCatNLO 1  0  0  2  1 0.76843924D+01 0.00000000D+00  -5  5  0 0.00000000D+00 0.00000000D+00 0.00000000D+00 0.00000000D+00 0.00000000D+00
  <mgrwgt>
 0.3839969561D+03   11    2    0
 0.436912384031424D+02 0.000000000000000D+00 0.000000000000000D+00 0.436912384031424D+02
 0.436912384031424D+02 0.000000000000000D+00 0.000000000000000D+00 -.436912384031424D+02
 0.436912384031424D+02 -.417770126388490D+02 0.559093046667455D+01 -.115042176913726D+02
 0.436912384031424D+02 0.417770126388490D+02 -.559093046667455D+01 0.115042176913726D+02
 0.000000000000000D+00 0.000000000000000D+00 -.000000000000000D+00 -.000000000000000D+00
 0.446944298548367D+02 0.000000000000000D+00 0.000000000000000D+00 0.446944298548367D+02
 0.601695848914725D+02 0.000000000000000D+00 0.000000000000000D+00 -.601695848914725D+02
 0.451500822673264D+02 -.426678120706626D+02 0.925422698870442D+01 -.115042176913726D+02
 0.425476778394337D+02 0.409123071503516D+02 -.203494188443743D+01 0.115042176913726D+02
 0.171662546395492D+02 0.175550492031110D+01 -.721928510426699D+01 -.154751550366358D+02
0.237279463304D-01 0.000000000000D+00 0.000000000000D+00 0.605852996967D-01 0.000000000000D+00  5 -2 2 -13 13 21 0 0.51422520D-02 0.87863528D-02 0.17765773D+04 0.76356973D+04 0.76356973D+04 0.12216687D+01  1  2  2  2  5  2        2 0.322518305078D+03
-.131615063414D-02 0.000000000000D+00 -.911215616205D-04 0.605852996967D-01 0.000000000000D+00  5 -2 2 -13 13 21 2 0.51422520D-02 0.87863528D-02 0.17765773D+04 0.76356973D+04 0.76356973D+04 0.12216687D+01  1  2  3  2  5  2        2 -.293951219218D+02
0.127445998127D-02 0.000000000000D+00 0.000000000000D+00 0.605852996967D-01 0.000000000000D+00  5 -2 2 -13 13 21 2 0.51422520D-02 0.87863528D-02 0.17765773D+04 0.76356973D+04 0.76356973D+04 0.12216687D+01  1  2 15  2  5  2        2 0.258539763251D+02
0.104982349475D+00 0.000000000000D+00 0.000000000000D+00 0.605852996967D-01 0.000000000000D+00  5 -2 2 -13 13 21 2 0.51422520D-02 0.12377996D-01 0.21184111D+04 0.76908971D+04 0.76908971D+04 0.12213341D+01  1  2 12  2  5  2        2 0.140114147166D+04
-.105223032537D+00 0.000000000000D+00 0.000000000000D+00 0.605852996967D-01 0.000000000000D+00  5 -2 2 -13 13 21 2 0.51422520D-02 0.87863528D-02 0.17765773D+04 0.76356973D+04 0.76356973D+04 0.12216687D+01  1  2  4  2  5  2        2 -.213457765018D+04
-.124397337895D+00 0.000000000000D+00 -.138230013834D-01 0.605852996967D-01 0.000000000000D+00  5 -2 2 -13 13 21 2 0.51422520D-02 0.12339134D-01 0.17765773D+04 0.76356973D+04 0.76356973D+04 0.12216687D+01  1  2  5  2  5  2        2 -.193656601021D+04
0.122708572837D+00 0.000000000000D+00 0.130625996005D-01 0.605852996967D-01 0.000000000000D+00  5 -2 2 -13 13 21 2 0.51422520D-02 0.87863528D-02 0.17765773D+04 0.76356973D+04 0.76356973D+04 0.12216687D+01  1  2  6  2  5  2        2 0.287568831796D+04
0.117520941562D-02 0.000000000000D+00 0.000000000000D+00 0.605852996967D-01 0.913404919122D-02  5 -2 2 -13 13 21 2 0.52603229D-02 0.12100165D-01 0.21184111D+04 0.76908971D+04 0.76908971D+04 0.12213341D+01  1  2 11  2  5  2        2 0.155942943998D+02
0.446688093137D-02 0.000000000000D+00 0.000000000000D+00 0.605852996967D-01 0.000000000000D+00  5 -2 21 -13 13 -2 2 0.51422520D-02 0.12377996D-01 0.21184111D+04 0.76908971D+04 0.76908971D+04 0.12213341D+01  1  2 12  4  5  2        2 0.558709933351D+03
-.488396432822D-02 0.000000000000D+00 -.584258767548D-03 0.605852996967D-01 0.000000000000D+00  5 -2 21 -13 13 -2 2 0.51422520D-02 0.12339134D-01 0.17765773D+04 0.76356973D+04 0.76356973D+04 0.12216687D+01  1  2  5  4  5  2        2 -.721334317746D+03
0.506019063636D-04 0.000000000000D+00 0.000000000000D+00 0.605852996967D-01 0.386178517866D-03  5 -2 21 -13 13 -2 2 0.52603229D-02 0.12100165D-01 0.21184111D+04 0.76908971D+04 0.76908971D+04 0.12213341D+01  1  2 11  4  5  2        2 0.636375735168D+01
  </mgrwgt>
  </event>
  <event npLO=' -1 ' npNLO=' 0 '>
  5     66 0.12166989E+02 0.39774505E+02 0.75467711E-02 0.11602887E+00
       -2 -1    0    0    0  501 0.00000000E+00 0.00000000E+00 0.14734504E+01 0.14734504E+01 0.00000000E+00 0.0000E+00 0.9000E+01
        2 -1    0    0  501    0 0.00000000E+00 0.00000000E+00 -.15109333E+04 0.15109333E+04 0.00000000E+00 0.0000E+00 0.9000E+01
       23  2    1    2    0    0 0.00000000E+00 0.00000000E+00 -.15094598E+04 0.15124067E+04 0.94367055E+02 0.0000E+00 0.0000E+00
      -13  1    3    3    0    0 -.46949100E+01 0.46165950E+02 -.61784503E+03 0.61958520E+03 0.00000000E+00 0.0000E+00 0.9000E+01
       13  1    3    3    0    0 0.46949100E+01 -.46165950E+02 -.89161480E+03 0.89282154E+03 0.00000000E+00 0.0000E+00 0.9000E+01
#aMCatNLO 1  0  0  1  2 0.82248534D+02 0.00000000D+00  -5  5  0 0.00000000D+00 0.00000000D+00 0.00000000D+00 0.00000000D+00 0.00000000D+00
  <mgrwgt>
 0.3969187572D+03    5    2    0
 0.471835276082898D+02 0.000000000000000D+00 0.000000000000000D+00 0.471835276082898D+02
 0.471835276082898D+02 0.000000000000000D+00 0.000000000000000D+00 -.471835276082898D+02
 0.471835276082898D+02 -.469490999627788D+01 0.461659495199756D+02 0.854097199434376D+01
 0.471835276082898D+02 0.469490999627788D+01 -.461659495199756D+02 -.854097199434376D+01
 0.000000000000000D+00 0.000000000000000D+00 -.000000000000000D+00 -.000000000000000D+00
 0.591416738708383D+02 0.000000000000000D+00 0.000000000000000D+00 0.591416738708383D+02
 0.975834512846711D+02 0.000000000000000D+00 0.000000000000000D+00 -.975834512846711D+02
 0.687039175496528D+02 -.155221486620700D+02 0.663802906364075D+02 0.854097199434376D+01
 0.333541783771567D+02 -.282964077029895D+01 -.321176920982515D+02 -.854097199434376D+01
 0.546670292286999D+02 0.183517894323690D+02 -.342625985381560D+02 -.384417774138328D+02
0.182878093952D-01 0.000000000000D+00 0.000000000000D+00 0.109610498911D+00 0.000000000000D+00  5 -2 2 -13 13 21 0 0.22668468D-03 0.23245128D+00 0.21533371D+04 0.89051411D+04 0.89051411D+04 0.12145868D+01  1  2  2  1  5  1       -2 0.398890052760D+03
-.101564663763D-02 0.000000000000D+00 -.702300033685D-04 0.109610498911D+00 0.000000000000D+00  5 -2 2 -13 13 21 2 0.22668468D-03 0.23245128D+00 0.21533371D+04 0.89051411D+04 0.89051411D+04 0.12145868D+01  1  2  3  1  5  1       -2 -.358887390471D+02
0.985688999318D-03 0.000000000000D+00 0.000000000000D+00 0.109610498911D+00 0.000000000000D+00  5 -2 2 -13 13 21 2 0.22668468D-03 0.23245128D+00 0.21533371D+04 0.89051411D+04 0.89051411D+04 0.12145868D+01  1  2 15  1  5  1       -2 0.317167407768D+02
0.791565313175D-04 0.000000000000D+00 0.000000000000D+00 0.109610498911D+00 0.000000000000D+00  5 -2 2 -13 13 21 2 0.58763972D-03 0.23245128D+00 0.48497968D+04 0.10415855D+05 0.10415855D+05 0.12075023D+01  1  2 12  1  5  1       -2 0.701613340533D+00
0.834996655693D-05 0.000000000000D+00 0.000000000000D+00 0.109610498911D+00 0.000000000000D+00  5 21 2 -13 13 2 2 0.58763972D-03 0.23245128D+00 0.48497968D+04 0.10415855D+05 0.10415855D+05 0.12075023D+01  1  2 12  3  5  1       -2 0.149908937030D+01
  </mgrwgt>
  </event>
  <event npLO=' -1 ' npNLO=' 0 '>
  5     66 0.12166989E+02 0.41583854E+02 0.75467711E-02 0.11702182E+00
       -2 -1    0    0    0  501 0.00000000E+00 0.00000000E+00 0.51021398E+01 0.51021398E+01 0.00000000E+00 0.0000E+00 0.9000E+01
        2 -1    0    0  501    0 0.00000000E+00 0.00000000E+00 -.42353038E+03 0.42353038E+03 0.00000000E+00 0.0000E+00 0.9000E+01
       23  2    1    2    0    0 0.00000000E+00 0.00000000E+00 -.41842824E+03 0.42863252E+03 0.92971204E+02 0.0000E+00 0.0000E+00
      -11  1    3    3    0    0 0.22156002E+02 0.38440764E+02 -.14527588E+03 0.15190017E+03 0.00000000E+00 0.0000E+00 0.9000E+01
       11  1    3    3    0    0 -.22156002E+02 -.38440764E+02 -.27315236E+03 0.27673234E+03 0.00000000E+00 0.0000E+00 0.9000E+01
#aMCatNLO 1  0  0  2  1 0.41829804D+02 0.00000000D+00  -5  5  0 0.00000000D+00 0.00000000D+00 0.00000000D+00 0.00000000D+00 0.00000000D+00
  <mgrwgt>
 0.3133081833D+03    6    2    0
 0.464856017628162D+02 0.000000000000000D+00 0.000000000000000D+00 0.464856017628162D+02
 0.464856017628162D+02 0.000000000000000D+00 0.000000000000000D+00 -.464856017628162D+02
 0.464856017628162D+02 0.221560016363209D+02 0.384407639250348D+02 0.138683247583199D+02
 0.464856017628162D+02 -.221560016363209D+02 -.384407639250348D+02 -.138683247583199D+02
 0.000000000000000D+00 0.000000000000000D+00 -.000000000000000D+00 0.000000000000000D+00
 0.660215063741815D+02 0.000000000000000D+00 0.000000000000000D+00 0.660215063741815D+02
 0.572674661938322D+02 0.000000000000000D+00 0.000000000000000D+00 -.572674661938322D+02
 0.471275379156359D+02 0.107514747520545D+02 0.437387721483286D+02 0.138683247583199D+02
 0.492605725834211D+02 -.338203878875244D+02 -.330220372294270D+02 -.138683247583199D+02
 0.269008620689567D+02 0.230689131354699D+02 -.107167349189016D+02 0.875404018034926D+01
0.185426053190D-01 0.000000000000D+00 0.000000000000D+00 0.277489031992D+00 0.000000000000D+00  5 -2 2 -11 11 21 0 0.78494458D-03 0.65158519D-01 0.19685807D+04 0.86436447D+04 0.86436447D+04 0.12159490D+01  1  2  2  2  5  2        2 0.376709861333D+03
-.102742384881D-02 0.000000000000D+00 -.712084868052D-04 0.277489031992D+00 0.000000000000D+00  5 -2 2 -11 11 21 2 0.78494458D-03 0.65158519D-01 0.19685807D+04 0.86436447D+04 0.86436447D+04 0.12159490D+01  1  2  3  2  5  2        2 -.340260559052D+02
0.954427658373D-03 0.000000000000D+00 0.000000000000D+00 0.277489031992D+00 0.000000000000D+00  5 -2 2 -11 11 21 2 0.78494458D-03 0.65158519D-01 0.19685807D+04 0.86436447D+04 0.86436447D+04 0.12159490D+01  1  2 15  2  5  2        2 0.286688297894D+02
0.458172627885D-02 0.000000000000D+00 0.000000000000D+00 0.277489031992D+00 0.000000000000D+00  5 -2 2 -11 11 21 2 0.78494458D-03 0.11400600D+00 0.34660043D+04 0.92906678D+04 0.92906678D+04 0.12126580D+01  1  2 12  2  5  2        2 0.743358170689D+02
-.459273358602D-02 0.000000000000D+00 0.000000000000D+00 0.277489031992D+00 0.000000000000D+00  5 -2 2 -11 11 21 2 0.78494458D-03 0.65158519D-01 0.19685807D+04 0.86436447D+04 0.86436447D+04 0.12159490D+01  1  2  4  2  5  2        2 -.137955240809D+03
0.283131022276D-03 0.000000000000D+00 0.000000000000D+00 0.277489031992D+00 0.000000000000D+00  5 -2 21 -11 11 -2 2 0.78494458D-03 0.11400600D+00 0.34660043D+04 0.92906678D+04 0.92906678D+04 0.12126580D+01  1  2 12  4  5  2        2 0.557497186785D+01
  </mgrwgt>
  </event>
  <event npLO=' -1 ' npNLO=' 0 '>
  5     66 0.12166989E+02 0.46439536E+02 0.75467711E-02 0.11812606E+00
       -2 -1    0    0    0  501 0.00000000E+00 0.00000000E+00 0.80477062E+03 0.80477062E+03 0.00000000E+00 0.0000E+00 0.9000E+01
        2 -1    0    0  501    0 0.00000000E+00 0.00000000E+00 -.25465361E+01 0.25465361E+01 0.00000000E+00 0.0000E+00 0.9000E+01
       23  2    1    2    0    0 0.00000000E+00 0.00000000E+00 0.80222409E+03 0.80731716E+03 0.90540100E+02 0.0000E+00 0.0000E+00
      -11  1    3    3    0    0 -.29255946E+02 0.25757487E+02 0.60639312E+03 0.60764461E+03 0.00000000E+00 0.0000E+00 0.9000E+01
       11  1    3    3    0    0 0.29255946E+02 -.25757487E+02 0.19583097E+03 0.19967255E+03 0.00000000E+00 0.0000E+00 0.9000E+01
#aMCatNLO 1  0  0  1  2 0.23785932D+01 0.00000000D+00  -5  5  0 0.00000000D+00 0.00000000D+00 0.00000000D+00 0.00000000D+00 0.00000000D+00
  <mgrwgt>
 0.1621803486D+04   11    2    0
 0.452700498021691D+02 0.000000000000000D+00 0.000000000000000D+00 0.452700498021691D+02
 0.452700498021691D+02 0.000000000000000D+00 0.000000000000000D+00 -.452700498021691D+02
 0.452700498021691D+02 -.292559457854146D+02 0.257574865076434D+02 0.230221400851511D+02
 0.452700498021691D+02 0.292559457854146D+02 -.257574865076434D+02 -.230221400851511D+02
 0.000000000000000D+00 -.000000000000000D+00 0.000000000000000D+00 0.000000000000000D+00
 0.462137988244541D+02 0.000000000000000D+00 0.000000000000000D+00 0.462137988244541D+02
 0.460879721858007D+02 0.000000000000000D+00 0.000000000000000D+00 -.460879721858007D+02
 0.445709250322649D+02 -.288319143390828D+02 0.250053822141403D+02 0.230221400851511D+02
 0.459859004364075D+02 0.296866556328685D+02 -.265214362767618D+02 -.230221400851511D+02
 0.174494554158240D+01 -.854741293785702D+00 0.151605406262146D+01 0.125826638653368D+00
0.234457038959D+00 0.000000000000D+00 0.000000000000D+00 0.671350770968D+00 0.000000000000D+00  5 -2 2 -11 11 21 0 0.12381087D+00 0.39177478D-03 0.15193585D+04 0.81975096D+04 0.81975096D+04 0.12183831D+01  1  2  2  1  5  1       -2 0.693486638368D+03
-.126708436000D-01 0.000000000000D+00 -.900376763557D-03 0.671350770968D+00 0.000000000000D+00  5 -2 2 -11 11 21 2 0.12381087D+00 0.39177478D-03 0.15193585D+04 0.81975096D+04 0.81975096D+04 0.12183831D+01  1  2  3  1  5  1       -2 -.622985586573D+02
0.114607726770D-01 0.000000000000D+00 0.000000000000D+00 0.671350770968D+00 0.000000000000D+00  5 -2 2 -11 11 21 2 0.12381087D+00 0.39177478D-03 0.15193585D+04 0.81975096D+04 0.81975096D+04 0.12183831D+01  1  2 15  1  5  1       -2 0.503218308752D+02
0.761416886946D-03 0.000000000000D+00 0.000000000000D+00 0.671350770968D+00 0.000000000000D+00  5 -2 2 -11 11 21 2 0.12867556D+00 0.39177478D-03 0.15885505D+04 0.82005386D+04 0.82005386D+04 0.12183661D+01  1  2 12  1  5  1       -2 0.301979343129D+01
-.789794120605D+00 0.000000000000D+00 0.000000000000D+00 0.671350770968D+00 0.000000000000D+00  5 -2 2 -11 11 21 2 0.12381087D+00 0.39177478D-03 0.15193585D+04 0.81975096D+04 0.81975096D+04 0.12183831D+01  1  2  4  1  5  1       -2 -.346781908022D+04
-.486801754003D+01 0.000000000000D+00 -.712916217673D+00 0.671350770968D+00 0.000000000000D+00  5 -2 2 -11 11 21 2 0.12813117D+00 0.39177478D-03 0.15193585D+04 0.81975096D+04 0.81975096D+04 0.12183831D+01  1  2  5  1  5  1       -2 -.243456499480D+05
0.489001255622D+01 0.000000000000D+00 0.712497069471D+00 0.671350770968D+00 0.000000000000D+00  5 -2 2 -11 11 21 2 0.12381087D+00 0.39177478D-03 0.15193585D+04 0.81975096D+04 0.81975096D+04 0.12183831D+01  1  2  6  1  5  1       -2 0.267441025786D+05
0.789407034986D+00 0.000000000000D+00 0.000000000000D+00 0.671350770968D+00 0.175559194152D+01  5 -2 2 -11 11 21 2 0.12639196D+00 0.39885322D-03 0.15885505D+04 0.82005386D+04 0.82005386D+04 0.12183661D+01  1  2 11  1  5  1       -2 0.320578923633D+04
0.192635357793D-04 0.000000000000D+00 0.000000000000D+00 0.671350770968D+00 0.000000000000D+00  5 21 2 -11 11 2 2 0.12867556D+00 0.39177478D-03 0.15885505D+04 0.82005386D+04 0.82005386D+04 0.12183661D+01  1  2 12  3  5  1       -2 0.727848747049D+00
-.294558389761D-01 0.000000000000D+00 -.435788801003D-02 0.671350770968D+00 0.000000000000D+00  5 21 2 -11 11 2 2 0.12813117D+00 0.39177478D-03 0.15193585D+04 0.81975096D+04 0.81975096D+04 0.12183831D+01  1  2  5  3  5  1       -2 -.140660944661D+04
0.533803556789D-02 0.000000000000D+00 0.000000000000D+00 0.671350770968D+00 0.656437235469D-02  5 21 2 -11 11 2 2 0.12639196D+00 0.39885322D-03 0.15885505D+04 0.82005386D+04 0.82005386D+04 0.12183661D+01  1  2 11  3  5  1       -2 0.206732593361D+03
  </mgrwgt>
  </event>
  <event npLO=' -1 ' npNLO=' 0 '>
  5     66 0.12166989E+02 0.67789040E+02 0.75467711E-02 0.11723879E+00
       -2 -1    0    0    0  501 0.00000000E+00 0.00000000E+00 0.15693730E+01 0.15693730E+01 0.00000000E+00 0.0000E+00 0.9000E+01
        2 -1    0    0  501    0 0.00000000E+00 0.00000000E+00 -.12765798E+04 0.12765798E+04 0.00000000E+00 0.0000E+00 0.9000E+01
       23  2    1    2    0    0 0.00000000E+00 0.00000000E+00 -.12750105E+04 0.12781492E+04 0.89519383E+02 0.0000E+00 0.0000E+00
      -11  1    3    3    0    0 0.94820581E+01 0.29419891E+02 -.17529116E+03 0.17799559E+03 0.00000000E+00 0.0000E+00 0.9000E+01
       11  1    3    3    0    0 -.94820581E+01 -.29419891E+02 -.10997193E+04 0.11001536E+04 0.00000000E+00 0.0000E+00 0.9000E+01
#aMCatNLO 1  0  0  2  1 0.36533785D+02 0.00000000D+00  -5  5  0 0.00000000D+00 0.00000000D+00 0.00000000D+00 0.00000000D+00 0.00000000D+00
  <mgrwgt>
 0.3390130354D+03    7    2    0
 0.447596912920881D+02 0.000000000000000D+00 0.000000000000000D+00 0.447596912920881D+02
 0.447596912920881D+02 0.000000000000000D+00 0.000000000000000D+00 -.447596912920881D+02
 0.447596912920881D+02 0.948205806274373D+01 0.294198906128817D+02 0.323726825546456D+02
 0.447596912920881D+02 -.948205806274373D+01 -.294198906128817D+02 -.323726825546456D+02
 0.000000000000000D+00 -.000000000000000D+00 0.000000000000000D+00 -.000000000000000D+00
 0.542630121541330D+02 0.000000000000000D+00 0.000000000000000D+00 0.542630121541330D+02
 0.870160156526383D+02 0.000000000000000D+00 0.000000000000000D+00 -.870160156526383D+02
 0.467511807499040D+02 0.243428522742698D+02 0.233475452431175D+02 0.323726825546456D+02
 0.484530570471519D+02 0.565511023267554D+01 -.356051666150713D+02 -.323726825546456D+02
 0.460747900097154D+02 -.299979625069453D+02 0.122576213719538D+02 -.327530034985052D+02
0.161644256577D-01 0.000000000000D+00 0.000000000000D+00 0.333334853802D+00 0.000000000000D+00  5 -2 2 -11 11 21 0 0.24144200D-03 0.19639690D+00 0.95543939D+03 0.80137199D+04 0.80137199D+04 0.12194294D+01  1  2  2  2  5  2        2 0.425852842764D+03
-.748367529552D-03 0.000000000000D+00 -.620756507164D-04 0.333334853802D+00 0.000000000000D+00  5 -2 2 -11 11 21 2 0.24144200D-03 0.19639690D+00 0.95543939D+03 0.80137199D+04 0.80137199D+04 0.12194294D+01  1  2  3  2  5  2        2 -.344894140969D+02
0.807911754972D-03 0.000000000000D+00 0.000000000000D+00 0.333334853802D+00 0.000000000000D+00  5 -2 2 -11 11 21 2 0.24144200D-03 0.19639690D+00 0.95543939D+03 0.80137199D+04 0.80137199D+04 0.12194294D+01  1  2 15  2  5  2        2 0.316502029349D+02
0.104719810608D-01 0.000000000000D+00 0.000000000000D+00 0.333334853802D+00 0.000000000000D+00  5 -2 2 -11 11 21 2 0.24144200D-03 0.46287482D+00 0.26105292D+04 0.90638469D+04 0.90638469D+04 0.12137817D+01  1  2 12  2  5  2        2 0.475433147648D+02
-.659275123503D-02 0.000000000000D+00 -.512914319269D-02 0.333334853802D+00 0.000000000000D+00  5 -2 2 -11 11 21 2 0.24144200D-03 0.40673935D+00 0.95543939D+03 0.80137199D+04 0.80137199D+04 0.12194294D+01  1  2  5  2  5  2        2 -.130901833486D+03
0.979891872462D-03 0.000000000000D+00 0.000000000000D+00 0.333334853802D+00 0.000000000000D+00  5 -2 21 -11 11 -2 2 0.24144200D-03 0.46287482D+00 0.26105292D+04 0.90638469D+04 0.90638469D+04 0.12137817D+01  1  2 12  4  5  2        2 0.483319919644D+00
-.203739179433D-03 0.000000000000D+00 -.403785654836D-03 0.333334853802D+00 0.000000000000D+00  5 -2 21 -11 11 -2 2 0.24144200D-03 0.40673935D+00 0.95543939D+03 0.80137199D+04 0.80137199D+04 0.12194294D+01  1  2  5  4  5  2        2 -.112539743508D+01
  </mgrwgt>
  </event>
  <event npLO=' -1 ' npNLO=' 0 '>
  6     66 0.12166989E+02 0.89939721E+02 0.75467711E-02 0.11816442E+00
       -2 -1    0    0    0  501 0.00000000E+00 0.00000000E+00 0.43671807E+02 0.43671807E+02 0.00000000E+00 0.0000E+00 0.9000E+01
       21 -1    0    0  501  502 0.00000000E+00 0.00000000E+00 -.56708390E+02 0.56708390E+02 0.00000000E+00 0.0000E+00 0.9000E+01
       23  2    1    2    0    0 0.83204859E+01 -.26519053E+01 -.14521196E+02 0.91522028E+02 0.89939721E+02 0.0000E+00 0.0000E+00
      -13  1    3    3    0    0 0.83540322E+01 -.15239088E+02 0.35722558E+02 0.39725569E+02 0.00000000E+00 0.0000E+00 0.9000E+01
       13  1    3    3    0    0 -.33546310E-01 0.12587183E+02 -.50243754E+02 0.51796459E+02 0.00000000E+00 0.0000E+00 0.9000E+01
       -2  1    1    2    0  502 -.83204859E+01 0.26519053E+01 0.14846139E+01 0.88581695E+01 0.00000000E+00 0.0000E+00 0.9000E+01
#aMCatNLO 2  0  0  2  1 0.14668643D+02 0.00000000D+00  -5  5  0 0.00000000D+00 0.00000000D+00 0.00000000D+00 0.00000000D+00 0.00000000D+00
  <mgrwgt>
 0.1830857757D+02    2    2    0
 0.449698602834953D+02 0.000000000000000D+00 0.000000000000000D+00 0.449698602834953D+02
 0.449698602834953D+02 0.000000000000000D+00 0.000000000000000D+00 -.449698602834953D+02
 0.449698602834953D+02 0.415712643693622D+01 -.139014503949329D+02 0.425647308298976D+02
 0.449698602834953D+02 -.415712643693622D+01 0.139014503949329D+02 -.425647308298976D+02
 0.000000000000000D+00 -.000000000000000D+00 0.000000000000000D+00 0.000000000000000D+00
 0.512501240019547D+02 0.000000000000000D+00 0.000000000000000D+00 0.512501240019547D+02
 0.483229636472438D+02 0.000000000000000D+00 0.000000000000000D+00 -.483229636472438D+02
 0.459758194635921D+02 0.835403223720090D+01 -.152390882308289D+02 0.425647308298976D+02
 0.443868742961910D+02 -.335463098416424D-01 0.125871829179258D+02 -.425647308298976D+02
 0.921039388941527D+01 -.832048592735926D+01 0.265190531290307D+01 0.292716035471090D+01
-.441307576579D-03 0.000000000000D+00 0.000000000000D+00 0.607807903053D+00 0.000000000000D+00  5 -2 21 -13 13 -2 2 0.58954156D-02 0.99427688D-02 0.37439956D+03 0.81654164D+04 0.81654164D+04 0.12185639D+01  1  2 13  4  5  2        2 -.653045006875D+02
0.551339852937D-03 0.000000000000D+00 0.000000000000D+00 0.607807903053D+00 0.821357975759D-03  5 -2 21 -13 13 -2 2 0.67187396D-02 0.87243677D-02 0.37439956D+03 0.81654164D+04 0.81654164D+04 0.12185639D+01  1  2  1  4  5  2        2 0.836130782538D+02
  </mgrwgt>
  </event>
  <event npLO=' -1 ' npNLO=' 0 '>
  5     66 0.12166989E+02 0.44088324E+02 0.75467711E-02 0.11794806E+00
       -2 -1    0    0    0  501 0.00000000E+00 0.00000000E+00 0.88340913E+01 0.88340913E+01 0.00000000E+00 0.0000E+00 0.9000E+01
        2 -1    0    0  501    0 0.00000000E+00 0.00000000E+00 -.23069094E+03 0.23069094E+03 0.00000000E+00 0.0000E+00 0.9000E+01
       23  2    1    2    0    0 0.00000000E+00 0.00000000E+00 -.22185685E+03 0.23952504E+03 0.90287205E+02 0.0000E+00 0.0000E+00
      -11  1    3    3    0    0 -.12159343E+02 -.10620442E+02 0.91365736E+00 0.16170287E+02 0.00000000E+00 0.0000E+00 0.9000E+01
       11  1    3    3    0    0 0.12159343E+02 0.10620442E+02 -.22277051E+03 0.22335475E+03 0.00000000E+00 0.0000E+00 0.9000E+01
#aMCatNLO 1  0  0  1  2 0.14838938D+02 0.00000000D+00  -5  5  0 0.00000000D+00 0.00000000D+00 0.00000000D+00 0.00000000D+00 0.00000000D+00
  <mgrwgt>
 0.3465199530D+03    7    2    0
 0.451436026850415D+02 0.000000000000000D+00 0.000000000000000D+00 0.451436026850415D+02
 0.451436026850415D+02 0.000000000000000D+00 0.000000000000000D+00 -.451436026850415D+02
 0.451436026850415D+02 -.121593427560378D+02 -.106204423638219D+02 0.421580532178944D+02
 0.451436026850415D+02 0.121593427560378D+02 0.106204423638219D+02 -.421580532178944D+02
 0.000000000000000D+00 0.000000000000000D+00 0.000000000000000D+00 0.000000000000000D+00
 0.112881672752711D+03 0.000000000000000D+00 0.000000000000000D+00 0.112881672752711D+03
 0.465292578262612D+02 0.000000000000000D+00 0.000000000000000D+00 -.465292578262612D+02
 0.481113200062417D+02 -.152463831337866D+02 -.174626877357974D+02 0.421580532178944D+02
 0.433534909985950D+02 0.922980194864034D+01 0.412728562511885D+01 -.421580532178944D+02
 0.679461195741350D+02 0.601658118514624D+01 0.133354021106786D+02 0.663524149264494D+02
0.186177177082D-01 0.000000000000D+00 0.000000000000D+00 0.822962124716D+00 0.000000000000D+00  5 -2 2 -11 11 21 0 0.13590910D-02 0.35490915D-01 0.26064341D+03 0.81517795D+04 0.81517795D+04 0.12186409D+01  1  2  2  1  5  1       -2 0.336998823162D+03
0.295375476581D-03 0.000000000000D+00 -.714969381570D-04 0.822962124716D+00 0.000000000000D+00  5 -2 2 -11 11 21 2 0.13590910D-02 0.35490915D-01 0.26064341D+03 0.81517795D+04 0.81517795D+04 0.12186409D+01  1  2  3  1  5  1       -2 0.132319014350D+01
0.756898391152D-03 0.000000000000D+00 0.000000000000D+00 0.822962124716D+00 0.000000000000D+00  5 -2 2 -11 11 21 2 0.13590910D-02 0.35490915D-01 0.26064341D+03 0.81517795D+04 0.81517795D+04 0.12186409D+01  1  2 15  1  5  1       -2 0.203465625458D+02
0.938531029089D-01 0.000000000000D+00 0.000000000000D+00 0.822962124716D+00 0.000000000000D+00  5 -2 2 -11 11 21 2 0.35027219D-02 0.35490915D-01 0.57413560D+03 0.83658117D+04 0.83658117D+04 0.12174478D+01  1  2 12  1  5  1       -2 0.662750731281D+03
-.781179616450D-01 0.000000000000D+00 -.526641210939D-02 0.822962124716D+00 0.000000000000D+00  5 -2 2 -11 11 21 2 0.34955812D-02 0.35490915D-01 0.26064341D+03 0.81517795D+04 0.81517795D+04 0.12186409D+01  1  2  5  1  5  1       -2 -.681896934117D+03
0.982984155997D-02 0.000000000000D+00 0.000000000000D+00 0.822962124716D+00 0.000000000000D+00  5 21 2 -11 11 2 2 0.35027219D-02 0.35490915D-01 0.57413560D+03 0.83658117D+04 0.83658117D+04 0.12174478D+01  1  2 12  3  5  1       -2 0.116661144908D+04
-.784152956028D-02 0.000000000000D+00 -.550205334965D-03 0.822962124716D+00 0.000000000000D+00  5 21 2 -11 11 2 2 0.34955812D-02 0.35490915D-01 0.26064341D+03 0.81517795D+04 0.81517795D+04 0.12186409D+01  1  2  5  3  5  1       -2 -.115961386905D+04
  </mgrwgt>
  </event>
  <event npLO=' -1 ' npNLO=' 0 '>
  4     66 0.12166989E+02 0.70569951E+02 0.75467711E-02 0.11205373E+00
       -2 -1    0    0    0  501 0.00000000E+00 0.00000000E+00 0.59069881E+01 0.59069881E+01 0.00000000E+00 0.0000E+00 0.9000E+01
        2 -1    0    0  501    0 0.00000000E+00 0.00000000E+00 -.69222385E+03 0.69222385E+03 0.00000000E+00 0.0000E+00 0.9000E+01
      -11  1    1    2    0    0 0.45027780E+02 0.15342130E+02 -.10988787E+03 0.11974233E+03 0.00000000E+00 0.0000E+00 0.9000E+01
       11  1    1    2    0    0 -.45027780E+02 -.15342130E+02 -.57642900E+03 0.57838851E+03 0.00000000E+00 0.0000E+00 0.9000E+01
#aMCatNLO 1  0  0  1  2 0.22902116D+02 0.00000000D+00  -5  5  0 0.00000000D+00 0.00000000D+00 0.00000000D+00 0.00000000D+00 0.00000000D+00
  <mgrwgt>
 0.5546434046D+03    9    2    0
 0.639449613646343D+02 0.000000000000000D+00 0.000000000000000D+00 0.639449613646343D+02
 0.639449613646343D+02 0.000000000000000D+00 0.000000000000000D+00 -.639449613646343D+02
 0.639449613646343D+02 0.450277797805860D+02 0.153421300240792D+02 0.427326125843000D+02
 0.639449613646343D+02 -.450277797805860D+02 -.153421300240792D+02 -.427326125843000D+02
 0.000000000000000D+00 -.000000000000000D+00 -.000000000000000D+00 0.000000000000000D+00
 0.951870187327396D+02 0.000000000000000D+00 0.000000000000000D+00 0.951870187327396D+02
 0.685095800974869D+02 0.000000000000000D+00 0.000000000000000D+00 -.685095800974869D+02
 0.703740122690517D+02 0.498792233252363D+02 0.252683300800818D+02 0.427326125843000D+02
 0.592582567439441D+02 -.405778242679487D+02 -.623738661065588D+01 -.427326125843000D+02
 0.340643298172307D+02 -.930139905728762D+01 -.190309434694259D+02 0.266774386352528D+02
0.485172078227D-01 0.000000000000D+00 0.000000000000D+00 0.920478677096D-02 0.000000000000D+00  5 -2 2 -11 11 21 0 0.90876740D-03 0.10649598D+00 0.22628819D+04 0.16355832D+05 0.16355832D+05 0.11877882D+01  1  2  2  1  5  1       -2 0.489992499204D+03
-.240860249708D-02 0.000000000000D+00 -.186318852913D-03 0.920478677096D-02 0.000000000000D+00  5 -2 2 -11 11 21 2 0.90876740D-03 0.10649598D+00 0.22628819D+04 0.16355832D+05 0.16355832D+05 0.11877882D+01  1  2  3  1  5  1       -2 -.395701821584D+02
0.225772962066D-02 0.000000000000D+00 0.000000000000D+00 0.920478677096D-02 0.000000000000D+00  5 -2 2 -11 11 21 2 0.90876740D-03 0.10649598D+00 0.22628819D+04 0.16355832D+05 0.16355832D+05 0.11877882D+01  1  2 15  1  5  1       -2 0.321694482689D+02
0.578095906456D-01 0.000000000000D+00 0.000000000000D+00 0.920478677096D-02 0.000000000000D+00  5 -2 2 -11 11 21 2 0.14493361D-02 0.10649598D+00 0.34899283D+04 0.16804525D+05 0.16804525D+05 0.11866376D+01  1  2 12  1  5  1       -2 0.428880221189D+03
-.574068859792D-01 0.000000000000D+00 0.000000000000D+00 0.920478677096D-02 0.000000000000D+00  5 -2 2 -11 11 21 2 0.90876740D-03 0.10649598D+00 0.22628819D+04 0.16355832D+05 0.16355832D+05 0.11877882D+01  1  2  4  1  5  1       -2 -.817966789241D+03
-.603548074395D-01 0.000000000000D+00 -.168715804388D-01 0.920478677096D-02 0.000000000000D+00  5 -2 2 -11 11 21 2 0.14502254D-02 0.10649598D+00 0.22628819D+04 0.16355832D+05 0.16355832D+05 0.11877882D+01  1  2  5  1  5  1       -2 -.695127397755D+03
0.629295910099D-01 0.000000000000D+00 0.151828350416D-01 0.920478677096D-02 0.000000000000D+00  5 -2 2 -11 11 21 2 0.90876740D-03 0.10649598D+00 0.22628819D+04 0.16355832D+05 0.16355832D+05 0.11877882D+01  1  2  6  1  5  1       -2 0.132455412317D+04
0.308918817374D-02 0.000000000000D+00 0.000000000000D+00 0.920478677096D-02 0.000000000000D+00  5 21 2 -11 11 2 2 0.14493361D-02 0.10649598D+00 0.34899283D+04 0.16804525D+05 0.16804525D+05 0.11866376D+01  1  2 12  3  5  1       -2 0.426381411926D+03
-.252511456385D-02 0.000000000000D+00 -.902482558013D-03 0.920478677096D-02 0.000000000000D+00  5 21 2 -11 11 2 2 0.14502254D-02 0.10649598D+00 0.22628819D+04 0.16355832D+05 0.16355832D+05 0.11877882D+01  1  2  5  3  5  1       -2 -.594669929967D+03
  </mgrwgt>
  </event>
  <event npLO=' -1 ' npNLO=' 0 '>
  5     66 0.12166989E+02 0.62717152E+02 0.75467711E-02 0.11758992E+00
       -2 -1    0    0    0  501 0.00000000E+00 0.00000000E+00 0.65763932E+02 0.65763932E+02 0.00000000E+00 0.0000E+00 0.9000E+01
        2 -1    0    0  501    0 0.00000000E+00 0.00000000E+00 -.30852813E+02 0.30852813E+02 0.00000000E+00 0.0000E+00 0.9000E+01
       23  2    1    2    0    0 0.00000000E+00 0.00000000E+00 0.34911119E+02 0.96616745E+02 0.90088896E+02 0.0000E+00 0.0000E+00
      -13  1    3    3    0    0 -.18522279E+02 -.31265018E+02 0.46000453E+02 0.58622673E+02 0.00000000E+00 0.0000E+00 0.9000E+01
       13  1    3    3    0    0 0.18522279E+02 0.31265018E+02 -.11089334E+02 0.37994072E+02 0.00000000E+00 0.0000E+00 0.9000E+01
#aMCatNLO 1  0  0  2  1 0.59940028D+02 0.00000000D+00  -5  5  0 0.00000000D+00 0.00000000D+00 0.00000000D+00 0.00000000D+00 0.00000000D+00
  <mgrwgt>
 0.3236598381D+03    5    2    0
 0.450444479715113D+02 0.000000000000000D+00 0.000000000000000D+00 0.450444479715113D+02
 0.450444479715113D+02 0.000000000000000D+00 0.000000000000000D+00 -.450444479715113D+02
 0.450444479715113D+02 -.185222787626281D+02 -.312650179962233D+02 0.266162757010351D+02
 0.450444479715113D+02 0.185222787626281D+02 0.312650179962233D+02 -.266162757010351D+02
 0.000000000000000D+00 0.000000000000000D+00 0.000000000000000D+00 0.000000000000000D+00
 0.812322602377503D+02 0.000000000000000D+00 0.000000000000000D+00 0.812322602377503D+02
 0.509613583340135D+02 0.000000000000000D+00 0.000000000000000D+00 -.509613583340135D+02
 0.564732339698331D+02 -.245790834270862D+02 -.433205341691713D+02 0.266162757010351D+02
 0.368551533148710D+02 0.136359389880928D+02 0.215392052216916D+02 -.266162757010351D+02
 0.388652312870597D+02 0.109431444389934D+02 0.217813289474797D+02 0.302709019037368D+02
0.278549259872D-01 0.000000000000D+00 0.000000000000D+00 0.491666781608D+00 0.000000000000D+00  5 -2 2 -13 13 21 0 0.10117528D-01 0.47465866D-02 0.13205762D+04 0.81160092D+04 0.81160092D+04 0.12188438D+01  1  2  2  2  5  2        2 0.305678692546D+03
-.146073401059D-02 0.000000000000D+00 -.106970250161D-03 0.491666781608D+00 0.000000000000D+00  5 -2 2 -13 13 21 2 0.10117528D-01 0.47465866D-02 0.13205762D+04 0.81160092D+04 0.81160092D+04 0.12188438D+01  1  2  3  2  5  2        2 -.269804188782D+02
0.146622256639D-02 0.000000000000D+00 0.000000000000D+00 0.491666781608D+00 0.000000000000D+00  5 -2 2 -13 13 21 2 0.10117528D-01 0.47465866D-02 0.13205762D+04 0.81160092D+04 0.81160092D+04 0.12188438D+01  1  2 15  2  5  2        2 0.239033701568D+02
0.176779386770D-02 0.000000000000D+00 0.000000000000D+00 0.491666781608D+00 0.000000000000D+00  5 -2 2 -13 13 21 2 0.10117528D-01 0.96843038D-02 0.24838303D+04 0.87101879D+04 0.87101879D+04 0.12155980D+01  1  2 12  2  5  2        2 0.116417397941D+02
0.136319454258D-03 0.000000000000D+00 0.000000000000D+00 0.491666781608D+00 0.000000000000D+00  5 -2 21 -13 13 -2 2 0.10117528D-01 0.96843038D-02 0.24838303D+04 0.87101879D+04 0.87101879D+04 0.12155980D+01  1  2 12  4  5  2        2 0.941645443262D+01
  </mgrwgt>
  </event>
  <event npLO=' -1 ' npNLO=' 0 '>
  5     66 0.12166989E+02 0.91744793E+02 0.75467711E-02 0.11427438E+00
       -2 -1    0    0    0  501 0.00000000E+00 0.00000000E+00 0.27405729E+02 0.27405729E+02 0.00000000E+00 0.0000E+00 0.9000E+01
        2 -1    0    0  501    0 0.00000000E+00 0.00000000E+00 -.76782370E+02 0.76782370E+02 0.00000000E+00 0.0000E+00 0.9000E+01
       23  2    1    2    0    0 0.00000000E+00 0.00000000E+00 -.49376641E+02 0.10418810E+03 0.91744793E+02 0.0000E+00 0.0000E+00
      -11  1    3    3    0    0 0.18692627E+02 0.26029539E+02 0.12586037E+02 0.34429051E+02 0.00000000E+00 0.0000E+00 0.9000E+01
       11  1    3    3    0    0 -.18692627E+02 -.26029539E+02 -.61962678E+02 0.69759047E+02 0.00000000E+00 0.0000E+00 0.9000E+01
#aMCatNLO 1  0  0  1  1 0.10016866D+03 0.00000000D+00  -5  5  0 0.00000000D+00 0.00000000D+00 0.00000000D+00 0.00000000D+00 0.00000000D+00
  <mgrwgt>
 0.4195878958D+03    3    2    0
 0.458723967343153D+02 0.000000000000000D+00 0.000000000000000D+00 0.458723967343153D+02
 0.458723967343153D+02 0.000000000000000D+00 0.000000000000000D+00 -.458723967343153D+02
 0.458723967343153D+02 0.186926268604314D+02 0.260295391477020D+02 0.328226381475552D+02
 0.458723967343153D+02 -.186926268604314D+02 -.260295391477020D+02 -.328226381475552D+02
 0.000000000000000D+00 -.000000000000000D+00 -.000000000000000D+00 -.000000000000000D+00
 0.837613623157397D+02 0.000000000000000D+00 0.000000000000000D+00 0.837613623157397D+02
 0.970036743497891D+02 0.000000000000000D+00 0.000000000000000D+00 -.970036743497891D+02
 0.735041136264562D+02 0.565579931763499D+02 0.335666881433004D+02 0.328226381475552D+02
 0.396752587125515D+02 0.844247116826802D+01 -.206282636088331D+02 -.328226381475552D+02
 0.675856643265211D+02 -.650004643446180D+02 -.129384245344673D+02 -.132423120340494D+02
0.333500953741D-01 0.000000000000D+00 0.000000000000D+00 0.979717136974D+00 0.000000000000D+00  5 -2 2 -11 11 21 0 0.42162659D-02 0.11812672D-01 0.10269512D+04 0.84171071D+04 0.84171071D+04 0.12171669D+01  1  2  2  1  5  1       -2 0.423872476268D+03
-.156295431128D-02 0.000000000000D+00 -.128073147518D-03 0.979717136974D+00 0.000000000000D+00  5 -2 2 -11 11 21 2 0.42162659D-02 0.11812672D-01 0.10269512D+04 0.84171071D+04 0.84171071D+04 0.12171669D+01  1  2  3  1  5  1       -2 -.345027343100D+02
0.160483181203D-02 0.000000000000D+00 0.000000000000D+00 0.979717136974D+00 0.000000000000D+00  5 -2 2 -11 11 21 2 0.42162659D-02 0.11812672D-01 0.10269512D+04 0.84171071D+04 0.84171071D+04 0.12171669D+01  1  2 15  1  5  1       -2 0.302181538234D+02
  </mgrwgt>
  </event>
  <event npLO=' -1 ' npNLO=' 0 '>
  5     66 0.12166989E+02 0.90128575E+02 0.75467711E-02 0.98680520E-01
       -2 -1    0    0    0  501 0.00000000E+00 0.00000000E+00 0.35892798E+03 0.35892798E+03 0.00000000E+00 0.0000E+00 0.9000E+01
        2 -1    0    0  501    0 0.00000000E+00 0.00000000E+00 -.56579317E+01 0.56579317E+01 0.00000000E+00 0.0000E+00 0.9000E+01
       23  2    1    2    0    0 0.00000000E+00 0.00000000E+00 0.35327005E+03 0.36458591E+03 0.90128575E+02 0.0000E+00 0.0000E+00
      -13  1    3    3    0    0 0.27600467E+02 0.35563083E+02 0.18499526E+03 0.19039371E+03 0.00000000E+00 0.0000E+00 0.9000E+01
       13  1    3    3    0    0 -.27600467E+02 -.35563083E+02 0.16827479E+03 0.17419220E+03 0.00000000E+00 0.0000E+00 0.9000E+01
#aMCatNLO 1  0  0  1  1 0.42949240D+03 0.00000000D+00  -5  5  0 0.00000000D+00 0.00000000D+00 0.00000000D+00 0.00000000D+00 0.00000000D+00
  <mgrwgt>
 0.3596055473D+03    5    2    0
 0.450642874369648D+02 0.000000000000000D+00 0.000000000000000D+00 0.450642874369648D+02
 0.450642874369648D+02 0.000000000000000D+00 0.000000000000000D+00 -.450642874369648D+02
 0.450642874369648D+02 0.276004671742674D+02 0.355630832951624D+02 0.206671732583634D+01
 0.450642874369648D+02 -.276004671742674D+02 -.355630832951624D+02 -.206671732583634D+01
 0.000000000000000D+00 -.000000000000000D+00 -.000000000000000D+00 0.000000000000000D+00
 0.375588685444449D+03 0.000000000000000D+00 0.000000000000000D+00 0.375588685444449D+03
 0.292606203645048D+03 0.000000000000000D+00 0.000000000000000D+00 -.292606203645048D+03
 0.328210995817154D+03 0.217815863947020D+03 0.245508525040977D+03 0.206671732583634D+01
 0.681212755529722D+01 -.116503653209610D+01 -.638564414946599D+01 -.206671732583634D+01
 0.333171765717047D+03 -.216650827414924D+03 -.239122880891511D+03 0.829824817994011D+02
0.591161558290D-01 0.000000000000D+00 0.000000000000D+00 0.356522804606D+00 0.000000000000D+00  5 -2 2 -13 13 21 0 0.55219689D-01 0.87045103D-03 0.20265187D+04 0.81231600D+04 0.81231600D+04 0.12188031D+01  1  2  2  1  5  1       -2 0.363829668641D+03
-.328422645387D-02 0.000000000000D+00 -.227021604025D-03 0.356522804606D+00 0.000000000000D+00  5 -2 2 -13 13 21 2 0.55219689D-01 0.87045103D-03 0.20265187D+04 0.81231600D+04 0.81231600D+04 0.12188031D+01  1  2  3  1  5  1       -2 -.329072783568D+02
0.316886692031D-02 0.000000000000D+00 0.000000000000D+00 0.356522804606D+00 0.000000000000D+00  5 -2 2 -13 13 21 2 0.55219689D-01 0.87045103D-03 0.20265187D+04 0.81231600D+04 0.81231600D+04 0.12188031D+01  1  2 15  1  5  1       -2 0.289709710573D+02
0.150188101566D+00 0.000000000000D+00 -.510755457645D-01 0.356522804606D+00 0.000000000000D+00  5 -2 2 -13 13 21 2 0.80020653D+00 0.87045103D-03 0.20265187D+04 0.81231600D+04 0.81231600D+04 0.12188031D+01  1  2  5  1  5  1       -2 -.276464036257D+00
0.344182725863D-01 0.000000000000D+00 -.154667880929D-01 0.356522804606D+00 0.000000000000D+00  5 21 2 -13 13 2 2 0.80020653D+00 0.87045103D-03 0.20265187D+04 0.81231600D+04 0.81231600D+04 0.12188031D+01  1  2  5  3  5  1       -2 -.113500344843D-01
  </mgrwgt>
  </event>
</LesHouchesEvents>
