<LesHouchesEvents version="3.0">
  <!--
  <scalesfunctionalform>
    muR  FxFx merging scale
    muF1 FxFx merging scale
    muF2 FxFx merging scale
    QES  H_T/2 := sum_i mT(i)/2, i=final state
  </scalesfunctionalform>
PYTHIA8   
  -->
  <header>
       42
  </header>
  <init>
   2212   2212 0.65000000D+04 0.65000000D+04 -1 -1 306000 306000 -4   1
 0.21047546D+03 0.24663754D+01 0.15498555D+02     66
  </init>
  <event npLO=' -1 ' npNLO=' 1 '>
  6     66 0.15498555E+02 0.33231913E+02 0.75467711E-02 0.13645201E+00
        1 -1    0    0  502    0 0.00000000E+00 0.00000000E+00 0.10486118E+03 0.10486118E+03 0.00000000E+00 0.0000E+00 0.9000E+01
       21 -1    0    0  501  502 0.00000000E+00 0.00000000E+00 -.68987454E+02 0.68987454E+02 0.00000000E+00 0.0000E+00 0.9000E+01
       23  2    1    2    0    0 -.28908855E+02 0.16390184E+02 0.75801478E+02 0.12190072E+03 0.89496156E+02 0.0000E+00 0.0000E+00
      -11  1    3    3    0    0 -.13575789E+01 -.15088604E+01 -.20267546E+02 0.20368925E+02 0.00000000E+00 0.0000E+00 0.9000E+01
       11  1    3    3    0    0 -.27551276E+02 0.17899044E+02 0.96069024E+02 0.10153180E+03 0.00000000E+00 0.0000E+00 0.9000E+01
        1  1    1    2  501    0 0.28908855E+02 -.16390184E+02 -.39927753E+02 0.51947911E+02 0.00000000E+00 0.0000E+00 0.9000E+01
#aMCatNLO 1  0  0  1  1 0.37299658D+00 0.00000000D+00  -5  6  0 0.00000000D+00 0.00000000D+00 0.00000000D+00 0.00000000D+00 0.00000000D+00
  <mgrwgt>
 0.2223134581D+03    7    2    0
 0.850535465856995D+02 0.000000000000000D+00 0.000000000000000D+00 0.850535465856995D+02
 0.850535465856995D+02 0.000000000000000D+00 0.000000000000000D+00 -.850535465856995D+02
 0.250911469911048D+02 -.135757891082431D+01 -.150886040893481D+01 -.250089179513321D+02
 0.835051038949979D+02 -.275512761862305D+02 0.178990444584688D+02 0.767701358895385D+02
 0.615108422852964D+02 0.289088550970548D+02 -.163901840495340D+02 -.517612179382064D+02
 0.000000000000000D+00 -.000000000000000D+00 -.000000000000000D+00 0.000000000000000D+00
 0.115560824288886D+03 0.000000000000000D+00 0.000000000000000D+00 0.115560824288886D+03
 0.111190979758782D+03 0.000000000000000D+00 0.000000000000000D+00 -.111190979758782D+03
 0.255540310923917D+02 0.454618464804155D+01 0.262578238252416D+01 -.250089179513321D+02
 0.833844237597193D+02 -.809678221446732D+01 0.315238081299470D+02 0.767701358895385D+02
 0.682017195828186D+02 0.440295896835061D+02 -.580052617518552D+01 -.517612179382064D+02
 0.496116296127379D+02 -.404789921170804D+02 -.283490643372857D+02 0.436984453010391D+01
0.317122757226D-02 0.000000000000D+00 0.000000000000D+00 0.137513712149D-02 0.000000000000D+00  6 1 21 -11 11 1 21 2 0.16132489D-01 0.10613454D-01 0.11599670D+04 0.11043600D+04 0.41408438D+04 0.13232710D+01  1  2  2  1  6  1        1 0.146947403389D+03
-.962832620138D-04 0.153962254543D-03 0.698622733696D-05 0.137513712149D-02 0.000000000000D+00  6 1 21 -11 11 1 21 4 0.16132489D-01 0.10613454D-01 0.11599670D+04 0.11043600D+04 0.41408438D+04 0.13232710D+01  1  2  3  1  6  1        1 -.770473606836D+01
0.227232111043D-03 0.000000000000D+00 0.000000000000D+00 0.137513712149D-02 0.000000000000D+00  6 1 21 -11 11 1 21 4 0.16132489D-01 0.10613454D-01 0.11599670D+04 0.11043600D+04 0.41408438D+04 0.13232710D+01  1  2 15  1  6  1        1 0.184374910954D+02
-.236367327615D-02 0.000000000000D+00 0.000000000000D+00 0.137513712149D-02 0.000000000000D+00  6 1 21 -11 11 1 21 4 0.16132489D-01 0.10613454D-01 0.11599670D+04 0.11043600D+04 0.41408438D+04 0.13232710D+01  1  2  4  1  6  1        1 -.191787176475D+03
0.162917004303D-02 0.000000000000D+00 -.351214338935D-02 0.137513712149D-02 0.000000000000D+00  6 1 21 -11 11 1 21 4 0.28306752D-01 0.10613454D-01 0.11599670D+04 0.11043600D+04 0.41408438D+04 0.13232710D+01  1  2  5  1  6  1        1 -.114780599153D+03
0.719239744526D-03 0.000000000000D+00 0.302177152381D-02 0.137513712149D-02 0.000000000000D+00  6 1 21 -11 11 1 21 4 0.16132489D-01 0.10613454D-01 0.11599670D+04 0.11043600D+04 0.41408438D+04 0.13232710D+01  1  2  6  1  6  1        1 0.370358499956D+03
0.280277154533D-03 0.000000000000D+00 -.217963685780D-03 0.137513712149D-02 0.000000000000D+00  6 21 21 -11 11 1 -1 4 0.28306752D-01 0.10613454D-01 0.11599670D+04 0.11043600D+04 0.41408438D+04 0.13232710D+01  1  2  5  4  6  1        1 0.842575365862D+00
  </mgrwgt>
  </event>
  <event npLO=' -1 ' npNLO=' 1 '>
  6     66 -.15498555E+02 0.15421814E+02 0.75467711E-02 0.15332194E+00
        1 -1    0    0  502    0 0.00000000E+00 0.00000000E+00 0.36448532E+03 0.36448532E+03 0.00000000E+00 0.0000E+00 0.9000E+01
       21 -1    0    0  501  502 0.00000000E+00 0.00000000E+00 -.80086187E+01 0.80086187E+01 0.00000000E+00 0.0000E+00 0.9000E+01
       23  2    1    2    0    0 -.13645949E+02 0.71847352E+01 0.27375509E+03 0.28834706E+03 0.89243179E+02 0.0000E+00 0.0000E+00
      -11  1    3    3    0    0 -.35271910E+02 -.18157404E+02 0.22976808E+03 0.23316769E+03 0.00000000E+00 0.0000E+00 0.9000E+01
       11  1    3    3    0    0 0.21625961E+02 0.25342139E+02 0.43987007E+02 0.55179371E+02 0.00000000E+00 0.0000E+00 0.9000E+01
        1  1    1    2  501    0 0.13645949E+02 -.71847352E+01 0.82721613E+02 0.84146882E+02 0.00000000E+00 0.0000E+00 0.9000E+01
#aMCatNLO 1  0  0  2  5 0.20264445D+02 0.00000000D+00  -5  6  0 0.00000000D+00 0.00000000D+00 0.00000000D+00 0.00000000D+00 0.00000000D+00
  <mgrwgt>
 -.1028472879D+04   14    2    0
 0.540279925665529D+02 0.000000000000000D+00 0.000000000000000D+00 0.540279925665529D+02
 0.540279925665529D+02 0.000000000000000D+00 0.000000000000000D+00 -.540279925665529D+02
 0.457779582587967D+02 -.352719103712117D+02 -.181574036400145D+02 0.228434343775827D+02
 0.451028978365706D+02 0.216259609166465D+02 0.253421388422031D+02 -.304033749210561D+02
 0.171751290377385D+02 0.136459494545652D+02 -.718473520218859D+01 0.755994054347338D+01
 0.000000000000000D+00 -.000000000000000D+00 -.000000000000000D+00 -.000000000000000D+00
 0.558649137184528D+02 0.000000000000000D+00 0.000000000000000D+00 0.558649137184528D+02
 0.164137951878231D+03 0.000000000000000D+00 0.000000000000000D+00 -.164137951878231D+03
 0.420847891256194D+02 -.338370350601656D+02 -.102157740735615D+02 0.228434343775827D+02
 0.512029079268761D+02 0.231987187362464D+02 0.340469091486199D+02 -.304033749210561D+02
 0.166070215238851D+02 0.141976414427845D+02 -.413127587266457D+01 0.755994054347338D+01
 0.110108147020303D+03 -.355932511886535D+01 -.196998592023938D+02 -.108273038159778D+03
0.141991246751D-03 0.000000000000D+00 0.000000000000D+00 0.249837595019D-03 0.000000000000D+00  6 1 21 -11 11 1 21 2 0.56074665D-01 0.12320952D-02 0.19540026D+04 0.23783259D+03 0.28083479D+04 0.14259106D+01  1  2  2  2  6  2       21 0.445212572782D+02
-.514163465335D-05 0.689363723574D-05 0.312807298453D-06 0.249837595019D-03 0.000000000000D+00  6 1 21 -11 11 1 21 4 0.56074665D-01 0.12320952D-02 0.19540026D+04 0.23783259D+03 0.28083479D+04 0.14259106D+01  1  2  3  2  6  2       21 -.124612799830D+02
0.915728107951D-05 0.000000000000D+00 0.000000000000D+00 0.249837595019D-03 0.000000000000D+00  6 1 21 -11 11 1 21 4 0.56074665D-01 0.12320952D-02 0.19540026D+04 0.23783259D+03 0.28083479D+04 0.14259106D+01  1  2 15  2  6  2       21 0.583790460797D+01
-.765431741115D-02 0.000000000000D+00 -.324121032948D-03 0.249837595019D-03 0.000000000000D+00  6 1 21 -11 11 1 21 4 0.56074665D-01 0.38608472D-02 0.19540026D+04 0.23783259D+03 0.28083479D+04 0.14259106D+01  1  2  5  2  6  2       21 -.898562718430D+03
-.287513088610D-02 0.000000000000D+00 -.117158336873D-03 0.249837595019D-03 0.000000000000D+00  6 1 -1 -11 11 1 -1 4 0.56074665D-01 0.38608472D-02 0.19540026D+04 0.23783259D+03 0.28083479D+04 0.14259106D+01  1  2  5  5  6  2       21 -.204332359568D+02
-.287513042103D-02 0.000000000000D+00 -.117158317922D-03 0.249837621365D-03 0.000000000000D+00  6 1 1 -11 11 1 1 4 0.56074665D-01 0.38608472D-02 0.19540026D+04 0.23783236D+03 0.28083475D+04 0.14259107D+01  1  2  5  6  6  2       21 -.223597807914D+02
-.287513088610D-02 0.000000000000D+00 -.117158336873D-03 0.249837595019D-03 0.000000000000D+00  6 1 -2 -11 11 1 -2 4 0.56074665D-01 0.38608472D-02 0.19540026D+04 0.23783259D+03 0.28083479D+04 0.14259106D+01  1  2  5  7  6  2       21 -.202796317352D+02
-.287513088610D-02 0.000000000000D+00 -.117158336873D-03 0.249837595019D-03 0.000000000000D+00  6 1 -4 -11 11 1 -4 4 0.56074665D-01 0.38608472D-02 0.19540026D+04 0.23783259D+03 0.28083479D+04 0.14259106D+01  1  2  5  7  6  2       21 -.133875754939D+02
-.287513088610D-02 0.000000000000D+00 -.117158336873D-03 0.249837595019D-03 0.000000000000D+00  6 1 2 -11 11 1 2 4 0.56074665D-01 0.38608472D-02 0.19540026D+04 0.23783259D+03 0.28083479D+04 0.14259106D+01  1  2  5  8  6  2       21 -.236654265003D+02
-.287513088610D-02 0.000000000000D+00 -.117158336873D-03 0.249837595019D-03 0.000000000000D+00  6 1 4 -11 11 1 4 4 0.56074665D-01 0.38608472D-02 0.19540026D+04 0.23783259D+03 0.28083479D+04 0.14259106D+01  1  2  5  8  6  2       21 -.133816963119D+02
-.287513088610D-02 0.000000000000D+00 -.117158336873D-03 0.249837595019D-03 0.000000000000D+00  6 1 -3 -11 11 1 -3 4 0.56074665D-01 0.38608472D-02 0.19540026D+04 0.23783259D+03 0.28083479D+04 0.14259106D+01  1  2  5  9  6  2       21 -.183861093119D+02
-.287513088610D-02 0.000000000000D+00 -.117158336873D-03 0.249837595019D-03 0.000000000000D+00  6 1 -5 -11 11 1 -5 4 0.56074665D-01 0.38608472D-02 0.19540026D+04 0.23783259D+03 0.28083479D+04 0.14259106D+01  1  2  5  9  6  2       21 -.877806312038D+01
-.287513088610D-02 0.000000000000D+00 -.117158336873D-03 0.249837595019D-03 0.000000000000D+00  6 1 3 -11 11 1 3 4 0.56074665D-01 0.38608472D-02 0.19540026D+04 0.23783259D+03 0.28083479D+04 0.14259106D+01  1  2  5 10  6  2       21 -.183604097583D+02
-.287513088610D-02 0.000000000000D+00 -.117158336873D-03 0.249837595019D-03 0.000000000000D+00  6 1 5 -11 11 1 5 4 0.56074665D-01 0.38608472D-02 0.19540026D+04 0.23783259D+03 0.28083479D+04 0.14259106D+01  1  2  5 10  6  2       21 -.877611392571D+01
  </mgrwgt>
  </event>
  <event npLO=' -1 ' npNLO=' 1 '>
  6     66 0.15498555E+02 0.22483728E+02 0.75467711E-02 0.14852596E+00
        1 -1    0    0  502    0 0.00000000E+00 0.00000000E+00 0.30061691E+04 0.30061691E+04 0.00000000E+00 0.0000E+00 0.9000E+01
       21 -1    0    0  501  502 0.00000000E+00 0.00000000E+00 -.11785348E+01 0.11785348E+01 0.00000000E+00 0.0000E+00 0.9000E+01
       23  2    1    2    0    0 -.76174109E+01 -.21154032E+02 0.26794646E+04 0.26810462E+04 0.89287681E+02 0.0000E+00 0.0000E+00
      -11  1    3    3    0    0 0.26468807E+02 -.16598197E+02 0.36745739E+03 0.36878317E+03 0.00000000E+00 0.0000E+00 0.9000E+01
       11  1    3    3    0    0 -.34086218E+02 -.45558351E+01 0.23120072E+04 0.23122630E+04 0.00000000E+00 0.0000E+00 0.9000E+01
        1  1    1    2  501    0 0.76174109E+01 0.21154032E+02 0.32552595E+03 0.32630149E+03 0.00000000E+00 0.0000E+00 0.9000E+01
#aMCatNLO 1  0  0  2  5 0.19508694D+02 0.00000000D+00  -5  6  0 0.00000000D+00 0.00000000D+00 0.00000000D+00 0.00000000D+00 0.00000000D+00
  <mgrwgt>
 0.4656794833D+03   26    2    0
 0.595220533301193D+02 0.000000000000000D+00 0.000000000000000D+00 0.595220533301193D+02
 0.595220533301193D+02 0.000000000000000D+00 0.000000000000000D+00 -.595220533301193D+02
 0.407682837187635D+02 0.264688069473322D+02 -.165981971895967D+02 -.261907439034045D+02
 0.522383752807021D+02 -.340862178955196D+02 -.455583508974531D+01 0.393220290445657D+02
 0.260374476607730D+02 0.761741094818736D+01 0.211540322793421D+02 -.131312851411612D+02
 0.000000000000000D+00 0.000000000000000D+00 0.000000000000000D+00 0.000000000000000D+00
 0.681476933261402D+02 0.000000000000000D+00 0.000000000000000D+00 0.681476933261402D+02
 0.633496410982919D+02 0.000000000000000D+00 0.000000000000000D+00 -.633496410982919D+02
 0.412656308694593D+02 0.248434358550453D+02 -.199925215957619D+02 -.261907439034045D+02
 0.541901107027718D+02 -.361949284865200D+02 -.895953579448742D+01 0.393220290445657D+02
 0.240905105388782D+02 0.662420546016376D+01 0.190798834007668D+02 -.131312851411612D+02
 0.119510823133228D+02 0.472728717131093D+01 0.987217398948255D+01 0.479805222784825D+01
0.493515155297D-02 0.000000000000D+00 0.000000000000D+00 0.492668324364D-03 0.000000000000D+00  6 1 21 -11 11 1 21 2 0.46248756D+00 0.18131304D-03 0.19410907D+04 0.50551803D+03 0.32809263D+04 0.13725179D+01  1  2  2  2  6  2       21 0.233100124923D+03
-.268800115193D-03 0.239600294301D-03 0.108721590948D-04 0.492668324364D-03 0.000000000000D+00  6 1 21 -11 11 1 21 4 0.46248756D+00 0.18131304D-03 0.19410907D+04 0.50551803D+03 0.32809263D+04 0.13725179D+01  1  2  3  2  6  2       21 -.520922430971D+02
0.398074070227D-03 0.000000000000D+00 0.000000000000D+00 0.492668324364D-03 0.000000000000D+00  6 1 21 -11 11 1 21 4 0.46248756D+00 0.18131304D-03 0.19410907D+04 0.50551803D+03 0.32809263D+04 0.13725179D+01  1  2 15  2  6  2       21 0.354194611625D+02
0.190751685458D-02 0.000000000000D+00 0.000000000000D+00 0.498393850306D-03 0.000000000000D+00  6 1 21 -11 11 1 21 4 0.46248756D+00 0.22093705D-03 0.25159701D+04 0.44920557D+03 0.31901698D+04 0.13804702D+01  1  2 12  2  6  2       21 0.131960354911D+03
0.190751685458D-02 0.000000000000D+00 0.000000000000D+00 0.498393850306D-03 0.000000000000D+00  6 1 21 -11 11 1 21 4 0.46248756D+00 0.22093705D-03 0.25159701D+04 0.44920557D+03 0.31901698D+04 0.13804702D+01  1  2 12  2  6  2       21 0.131960354911D+03
-.230633390059D-03 0.000000000000D+00 0.000000000000D+00 0.492668324364D-03 0.000000000000D+00  6 1 21 -11 11 1 21 4 0.46248756D+00 0.18131304D-03 0.19410907D+04 0.50551803D+03 0.32809263D+04 0.13725179D+01  1  2  4  2  6  2       21 -.205210814091D+02
0.107889835504D-03 0.000000000000D+00 0.000000000000D+00 0.488124734779D-03 0.000000000000D+00  6 1 -1 -11 11 1 -1 4 0.46248756D+00 0.22093705D-03 0.25159701D+04 0.55633188D+03 0.33603601D+04 0.13661743D+01  1  2 12  5  6  2       21 0.331491035985D+00
0.107889835504D-03 0.000000000000D+00 0.000000000000D+00 0.488124734779D-03 0.000000000000D+00  6 1 -1 -11 11 1 -1 4 0.46248756D+00 0.22093705D-03 0.25159701D+04 0.55633188D+03 0.33603601D+04 0.13661743D+01  1  2 12  5  6  2       21 0.331491035985D+00
0.107889846157D-03 0.000000000000D+00 0.000000000000D+00 0.498393801229D-03 0.000000000000D+00  6 1 1 -11 11 1 1 4 0.46248756D+00 0.22093705D-03 0.25159701D+04 0.44920602D+03 0.31901704D+04 0.13804701D+01  1  2 12  6  6  2       21 0.349026455072D+00
0.107889846157D-03 0.000000000000D+00 0.000000000000D+00 0.498393801229D-03 0.000000000000D+00  6 1 1 -11 11 1 1 4 0.46248756D+00 0.22093705D-03 0.25159701D+04 0.44920602D+03 0.31901704D+04 0.13804701D+01  1  2 12  6  6  2       21 0.349026455072D+00
0.107889835504D-03 0.000000000000D+00 0.000000000000D+00 0.488124734779D-03 0.000000000000D+00  6 1 -2 -11 11 1 -2 4 0.46248756D+00 0.22093705D-03 0.25159701D+04 0.55633188D+03 0.33603601D+04 0.13661743D+01  1  2 12  7  6  2       21 0.333246696066D+00
0.107889835504D-03 0.000000000000D+00 0.000000000000D+00 0.488124734779D-03 0.000000000000D+00  6 1 -4 -11 11 1 -4 4 0.46248756D+00 0.22093705D-03 0.25159701D+04 0.55633188D+03 0.33603601D+04 0.13661743D+01  1  2 12  7  6  2       21 0.272357227904D+00
0.107889835504D-03 0.000000000000D+00 0.000000000000D+00 0.488124734779D-03 0.000000000000D+00  6 1 -2 -11 11 1 -2 4 0.46248756D+00 0.22093705D-03 0.25159701D+04 0.55633188D+03 0.33603601D+04 0.13661743D+01  1  2 12  7  6  2       21 0.333246696066D+00
0.107889835504D-03 0.000000000000D+00 0.000000000000D+00 0.488124734779D-03 0.000000000000D+00  6 1 -4 -11 11 1 -4 4 0.46248756D+00 0.22093705D-03 0.25159701D+04 0.55633188D+03 0.33603601D+04 0.13661743D+01  1  2 12  7  6  2       21 0.272357227904D+00
0.107889835504D-03 0.000000000000D+00 0.000000000000D+00 0.488124734779D-03 0.000000000000D+00  6 1 2 -11 11 1 2 4 0.46248756D+00 0.22093705D-03 0.25159701D+04 0.55633188D+03 0.33603601D+04 0.13661743D+01  1  2 12  8  6  2       21 0.338613805782D+00
0.107889835504D-03 0.000000000000D+00 0.000000000000D+00 0.488124734779D-03 0.000000000000D+00  6 1 4 -11 11 1 4 4 0.46248756D+00 0.22093705D-03 0.25159701D+04 0.55633188D+03 0.33603601D+04 0.13661743D+01  1  2 12  8  6  2       21 0.272401957303D+00
0.107889835504D-03 0.000000000000D+00 0.000000000000D+00 0.488124734779D-03 0.000000000000D+00  6 1 2 -11 11 1 2 4 0.46248756D+00 0.22093705D-03 0.25159701D+04 0.55633188D+03 0.33603601D+04 0.13661743D+01  1  2 12  8  6  2       21 0.338613805782D+00
0.107889835504D-03 0.000000000000D+00 0.000000000000D+00 0.488124734779D-03 0.000000000000D+00  6 1 4 -11 11 1 4 4 0.46248756D+00 0.22093705D-03 0.25159701D+04 0.55633188D+03 0.33603601D+04 0.13661743D+01  1  2 12  8  6  2       21 0.272401957303D+00
0.107889835504D-03 0.000000000000D+00 0.000000000000D+00 0.488124734779D-03 0.000000000000D+00  6 1 -3 -11 11 1 -3 4 0.46248756D+00 0.22093705D-03 0.25159701D+04 0.55633188D+03 0.33603601D+04 0.13661743D+01  1  2 12  9  6  2       21 0.319044855540D+00
0.107889835504D-03 0.000000000000D+00 0.000000000000D+00 0.488124734779D-03 0.000000000000D+00  6 1 -5 -11 11 1 -5 4 0.46248756D+00 0.22093705D-03 0.25159701D+04 0.55633188D+03 0.33603601D+04 0.13661743D+01  1  2 12  9  6  2       21 0.195703660059D+00
0.107889835504D-03 0.000000000000D+00 0.000000000000D+00 0.488124734779D-03 0.000000000000D+00  6 1 -3 -11 11 1 -3 4 0.46248756D+00 0.22093705D-03 0.25159701D+04 0.55633188D+03 0.33603601D+04 0.13661743D+01  1  2 12  9  6  2       21 0.319044855540D+00
0.107889835504D-03 0.000000000000D+00 0.000000000000D+00 0.488124734779D-03 0.000000000000D+00  6 1 -5 -11 11 1 -5 4 0.46248756D+00 0.22093705D-03 0.25159701D+04 0.55633188D+03 0.33603601D+04 0.13661743D+01  1  2 12  9  6  2       21 0.195703660059D+00
0.107889835504D-03 0.000000000000D+00 0.000000000000D+00 0.488124734779D-03 0.000000000000D+00  6 1 3 -11 11 1 3 4 0.46248756D+00 0.22093705D-03 0.25159701D+04 0.55633188D+03 0.33603601D+04 0.13661743D+01  1  2 12 10  6  2       21 0.318651680362D+00
0.107889835504D-03 0.000000000000D+00 0.000000000000D+00 0.488124734779D-03 0.000000000000D+00  6 1 5 -11 11 1 5 4 0.46248756D+00 0.22093705D-03 0.25159701D+04 0.55633188D+03 0.33603601D+04 0.13661743D+01  1  2 12 10  6  2       21 0.195718590391D+00
0.107889835504D-03 0.000000000000D+00 0.000000000000D+00 0.488124734779D-03 0.000000000000D+00  6 1 3 -11 11 1 3 4 0.46248756D+00 0.22093705D-03 0.25159701D+04 0.55633188D+03 0.33603601D+04 0.13661743D+01  1  2 12 10  6  2       21 0.318651680362D+00
0.107889835504D-03 0.000000000000D+00 0.000000000000D+00 0.488124734779D-03 0.000000000000D+00  6 1 5 -11 11 1 5 4 0.46248756D+00 0.22093705D-03 0.25159701D+04 0.55633188D+03 0.33603601D+04 0.13661743D+01  1  2 12 10  6  2       21 0.195718590391D+00
  </mgrwgt>
  </event>
  <event npLO=' -1 ' npNLO=' 1 '>
  6     66 -.15498555E+02 0.10326947E+02 0.75467711E-02 0.16061071E+00
        5 -1    0    0  502    0 0.00000000E+00 0.00000000E+00 0.14164603E+03 0.14164603E+03 0.00000000E+00 0.0000E+00 0.9000E+01
       21 -1    0    0  501  502 0.00000000E+00 0.00000000E+00 -.10129931E+03 0.10129931E+03 0.00000000E+00 0.0000E+00 0.9000E+01
       23  2    1    2    0    0 0.32901218E+00 0.10321704E+02 0.12681700E+03 0.15586057E+03 0.90018444E+02 0.0000E+00 0.0000E+00
      -13  1    3    3    0    0 -.89252561E+01 0.42071713E+02 0.27175745E+02 0.50874456E+02 0.00000000E+00 0.0000E+00 0.9000E+01
       13  1    3    3    0    0 0.92542683E+01 -.31750009E+02 0.99641257E+02 0.10498612E+03 0.00000000E+00 0.0000E+00 0.9000E+01
        5  1    1    2  501    0 -.32901218E+00 -.10321704E+02 -.86470282E+02 0.87084761E+02 0.00000000E+00 0.0000E+00 0.9000E+01
#aMCatNLO 1  0  0  1  2 0.54558293D+01 0.00000000D+00  -5  6  0 0.00000000D+00 0.00000000D+00 0.00000000D+00 0.00000000D+00 0.00000000D+00
  <mgrwgt>
 -.3276082487D+03    7    2    0
 0.119785826749223D+03 0.000000000000000D+00 0.000000000000000D+00 0.119785826749223D+03
 0.119785826749223D+03 0.000000000000000D+00 0.000000000000000D+00 -.119785826749223D+03
 0.470141582088473D+02 -.892525610155870D+01 0.420717127277604D+02 0.189905730235008D+02
 0.896837702536222D+02 0.925426827769276D+01 -.317500085890753D+02 0.833635059252106D+02
 0.102873725035976D+03 -.329012176134068D+00 -.103217041386851D+02 -.102354078948711D+03
 0.000000000000000D+00 0.000000000000000D+00 0.000000000000000D+00 0.000000000000000D+00
 0.129414996157476D+03 0.000000000000000D+00 0.000000000000000D+00 0.129414996157476D+03
 0.125760820556285D+03 0.000000000000000D+00 0.000000000000000D+00 -.125760820556285D+03
 0.452678350689273D+02 -.105074167809135D+02 0.397256745777698D+02 0.189905730235008D+02
 0.911508023381049D+02 0.615388715175254D+01 -.363472738958664D+02 0.833635059252106D+02
 0.103603954023718D+03 -.386904044567253D+01 -.155708810906553D+02 -.102354078948711D+03
 0.151532252830111D+02 0.822257007483346D+01 0.121924804087519D+02 0.365417560119123D+01
0.527753438613D-02 0.000000000000D+00 0.000000000000D+00 0.522758279553D-01 0.000000000000D+00  6 5 21 -13 13 5 21 2 0.21791696D-01 0.15584509D-01 0.18665063D+04 0.10664583D+03 0.25470094D+04 0.14905247D+01  1  2  2  1  6  1        5 0.215721700635D+02
0.200215314409D-02 0.256222889718D-03 0.116264298793D-04 0.522758279553D-01 0.000000000000D+00  6 5 21 -13 13 5 21 4 0.21791696D-01 0.15584509D-01 0.18665063D+04 0.10664583D+03 0.25470094D+04 0.14905247D+01  1  2  3  1  6  1        5 0.115546601490D+02
0.482081372568D-03 0.000000000000D+00 0.000000000000D+00 0.522758279553D-01 0.000000000000D+00  6 5 21 -13 13 5 21 4 0.21791696D-01 0.15584509D-01 0.18665063D+04 0.10664583D+03 0.25470094D+04 0.14905247D+01  1  2 15  1  6  1        5 0.437785569971D+01
-.191065961599D-01 0.000000000000D+00 0.000000000000D+00 0.522758279553D-01 0.000000000000D+00  6 5 21 -13 13 5 21 4 0.21791696D-01 0.15584509D-01 0.18665063D+04 0.10664583D+03 0.25470094D+04 0.14905247D+01  1  2  4  1  6  1        5 -.173509962551D+03
-.512560090179D-01 0.000000000000D+00 -.186963777661D-01 0.522758279553D-01 0.000000000000D+00  6 5 21 -13 13 5 21 4 0.24648138D-01 0.15584509D-01 0.18665063D+04 0.10664583D+03 0.25470094D+04 0.14905247D+01  1  2  5  1  6  1        5 -.411304826921D+03
0.532950284100D-01 0.000000000000D+00 0.185554433560D-01 0.522758279553D-01 0.000000000000D+00  6 5 21 -13 13 5 21 4 0.21791696D-01 0.15584509D-01 0.18665063D+04 0.10664583D+03 0.25470094D+04 0.14905247D+01  1  2  6  1  6  1        5 0.536360408433D+03
-.903328529591D-03 0.000000000000D+00 -.362592996431D-03 0.522758279553D-01 0.000000000000D+00  6 21 21 -13 13 5 -5 4 0.24648138D-01 0.15584509D-01 0.18665063D+04 0.10664583D+03 0.25470094D+04 0.14905247D+01  1  2  5  4  6  1        5 -.316658553546D+03
  </mgrwgt>
  </event>
  <event npLO=' -1 ' npNLO=' 1 '>
  7     66 -.15498555E+02 0.88562332E+01 0.75467711E-02 0.16217433E+00
        3 -1    0    0  502    0 0.00000000E+00 0.00000000E+00 0.33409813E+02 0.33409813E+02 0.00000000E+00 0.0000E+00 0.9000E+01
       21 -1    0    0  501  503 0.00000000E+00 0.00000000E+00 -.15901218E+03 0.15901218E+03 0.00000000E+00 0.0000E+00 0.9000E+01
       23  2    1    2    0    0 -.16935550E+02 0.60130689E+01 -.35307280E+02 0.99153787E+02 0.90894993E+02 0.0000E+00 0.0000E+00
      -13  1    3    3    0    0 0.12018863E+02 -.15011153E+02 0.23469715E+02 0.30341643E+02 0.00000000E+00 0.0000E+00 0.9000E+01
       13  1    3    3    0    0 -.28954413E+02 0.21024222E+02 -.58776995E+02 0.68812144E+02 0.00000000E+00 0.0000E+00 0.9000E+01
        3  1    1    2  501    0 0.11242250E+02 -.38862906E+01 -.82650683E+02 0.83502256E+02 0.00000000E+00 0.0000E+00 0.9000E+01
       21  1    1    2  502  503 0.56932997E+01 -.21267784E+01 -.76444044E+01 0.97659493E+01 0.00000000E+00 0.0000E+00 0.9000E+01
#aMCatNLO 2  0  0  2  5 0.76392988D+01 0.00000000D+00  -5  6  0 0.00000000D+00 0.00000000D+00 0.00000000D+00 0.00000000D+00 0.00000000D+00
  <mgrwgt>
 -.2526329919D+03    4    2    0
 0.696638580207101D+02 0.000000000000000D+00 0.000000000000000D+00 0.696638580207101D+02
 0.696638580207101D+02 0.000000000000000D+00 0.000000000000000D+00 -.696638580207101D+02
 0.603675778262006D+02 0.144686040169219D+02 -.159262739566476D+02 0.564026395504830D+02
 0.389454408474281D+02 -.273338247207708D+02 0.204188382632685D+02 -.187797878825397D+02
 0.400146973677915D+02 0.128652207038489D+02 -.449256430662097D+01 -.376228516679434D+02
 0.000000000000000D+00 0.000000000000000D+00 -.000000000000000D+00 -.000000000000000D+00
 0.720166557677405D+02 0.000000000000000D+00 0.000000000000000D+00 0.720166557677405D+02
 0.737685904567073D+02 0.000000000000000D+00 0.000000000000000D+00 -.737685904567073D+02
 0.595906498384077D+02 0.120188632519534D+02 -.150111533878262D+02 0.564026395504830D+02
 0.404110926153150D+02 -.289544133104406D+02 0.210242222994945D+02 -.187797878825397D+02
 0.394584644326588D+02 0.112422503751455D+02 -.388629055242546D+01 -.376228516679434D+02
 0.632503933806638D+01 0.569329968334163D+01 -.212677835924290D+01 -.175193468896684D+01
-.152450757644D-02 0.000000000000D+00 0.000000000000D+00 0.700847137203D-02 0.000000000000D+00  6 3 21 -13 13 3 21 4 0.49720474D-02 0.25289629D-01 0.13316951D+04 0.23266514D+03 0.28847280D+04 0.14275653D+01  1  2 13  2  6  2       21 -.136041185759D+03
-.152450757644D-02 0.000000000000D+00 0.000000000000D+00 0.700847137203D-02 0.000000000000D+00  6 3 21 -13 13 3 21 4 0.49720474D-02 0.25289629D-01 0.13316951D+04 0.23266514D+03 0.28847280D+04 0.14275653D+01  1  2 13  2  6  2       21 -.136041185759D+03
-.746147252078D-05 0.000000000000D+00 0.000000000000D+00 0.717974332259D-02 0.000000000000D+00  6 3 21 -13 13 3 21 4 0.49720474D-02 0.23102186D-01 0.11993277D+04 0.18569704D+03 0.27845609D+04 0.14449033D+01  1  2  8  2  6  2       21 -.819372709420D+00
0.224730040663D-03 0.000000000000D+00 0.000000000000D+00 0.717974332259D-02 0.228630113257D-02  6 3 21 -13 13 3 21 4 0.51399712D-02 0.24463412D-01 0.13316951D+04 0.23266514D+03 0.28847280D+04 0.14275653D+01  1  2  1  2  6  2       21 0.202687522781D+02
  </mgrwgt>
  </event>
  <event npLO=' -1 ' npNLO=' 1 '>
  6     66 0.15498555E+02 0.22743601E+02 0.75467711E-02 0.15016101E+00
        1 -1    0    0  502    0 0.00000000E+00 0.00000000E+00 0.64749087E+03 0.64749087E+03 0.00000000E+00 0.0000E+00 0.9000E+01
       21 -1    0    0  501  502 0.00000000E+00 0.00000000E+00 -.44489938E+02 0.44489938E+02 0.00000000E+00 0.0000E+00 0.9000E+01
       23  2    1    2    0    0 -.97567380E+01 -.20544524E+02 0.64087262E+03 0.64780462E+03 0.91737899E+02 0.0000E+00 0.0000E+00
      -11  1    3    3    0    0 0.25412364E+02 -.25085738E+01 0.55428604E+02 0.61027955E+02 0.00000000E+00 0.0000E+00 0.9000E+01
       11  1    3    3    0    0 -.35169102E+02 -.18035950E+02 0.58544401E+03 0.58677666E+03 0.00000000E+00 0.0000E+00 0.9000E+01
        1  1    1    2  501    0 0.97567380E+01 0.20544524E+02 -.37871683E+02 0.44176190E+02 0.00000000E+00 0.0000E+00 0.9000E+01
#aMCatNLO 1  0  0  2  1 0.22727867D+02 0.00000000D+00  -5  6  0 0.00000000D+00 0.00000000D+00 0.00000000D+00 0.00000000D+00 0.00000000D+00
  <mgrwgt>
 0.1588935470D+04   38    2    0
 0.169725744782027D+03 0.000000000000000D+00 0.000000000000000D+00 0.169725744782027D+03
 0.169725744782027D+03 0.000000000000000D+00 0.000000000000000D+00 -.169725744782027D+03
 0.259438360177822D+02 0.254123636059023D+02 -.250857378809212D+01 0.458273508166059D+01
 0.156178145652803D+03 -.351691016503560D+02 -.180359501766000D+02 0.151094182448836D+03
 0.157329507893469D+03 0.975673804445375D+01 0.205445239646921D+02 -.155676917530497D+03
 0.000000000000000D+00 -.000000000000000D+00 0.000000000000000D+00 -.000000000000000D+00
 0.172020662841518D+03 0.000000000000000D+00 0.000000000000000D+00 0.172020662841518D+03
 0.234378908321412D+03 0.000000000000000D+00 0.000000000000000D+00 -.234378908321412D+03
 0.270817902574455D+02 0.263989034522885D+02 -.393951764005970D+01 0.458273508166059D+01
 0.156178529089281D+03 -.293577170885161D+02 -.264651738320315D+02 0.151094182448836D+03
 0.156921356581379D+03 0.156033639373114D+02 0.120641839087019D+02 -.155676917530497D+03
 0.662178952348245D+02 -.126445503010839D+02 0.183405075633893D+02 -.623582454798947D+02
0.883552697110D-02 0.000000000000D+00 0.000000000000D+00 0.573220211971D-01 0.000000000000D+00  6 1 21 -11 11 1 21 2 0.99613980D-01 0.68446058D-02 0.19273710D+04 0.51727140D+03 0.34374037D+04 0.13709873D+01  1  2  2  2  6  2       21 0.902756097004D+02
0.142251536458D-02 0.428962482683D-03 0.194647021242D-04 0.573220211971D-01 0.000000000000D+00  6 1 21 -11 11 1 21 4 0.99613980D-01 0.68446058D-02 0.19273710D+04 0.51727140D+03 0.34374037D+04 0.13709873D+01  1  2  3  2  6  2       21 0.166992172121D+02
0.781748023673D-03 0.000000000000D+00 0.000000000000D+00 0.573220211971D-01 0.000000000000D+00  6 1 21 -11 11 1 21 4 0.99613980D-01 0.68446058D-02 0.19273710D+04 0.51727140D+03 0.34374037D+04 0.13709873D+01  1  2 15  2  6  2       21 0.150131432685D+02
0.631985305597D-01 0.000000000000D+00 0.000000000000D+00 0.550021691236D-01 0.000000000000D+00  6 1 21 -11 11 1 21 4 0.99613980D-01 0.95797050D-02 0.29277365D+04 0.79944444D+03 0.38608038D+04 0.13429585D+01  1  2 12  2  6  2       21 0.649750563615D+03
0.631985305597D-01 0.000000000000D+00 0.000000000000D+00 0.550021691236D-01 0.000000000000D+00  6 1 21 -11 11 1 21 4 0.99613980D-01 0.95797050D-02 0.29277365D+04 0.79944444D+03 0.38608038D+04 0.13429585D+01  1  2 12  2  6  2       21 0.649750563615D+03
-.202151132047D-01 0.000000000000D+00 0.000000000000D+00 0.573220211971D-01 0.000000000000D+00  6 1 21 -11 11 1 21 4 0.99613980D-01 0.68446058D-02 0.19273710D+04 0.51727140D+03 0.34374037D+04 0.13709873D+01  1  2  4  2  6  2       21 -.388222779643D+03
-.115395743473D+00 0.000000000000D+00 -.989717245321D-02 0.573220211971D-01 0.000000000000D+00  6 1 21 -11 11 1 21 4 0.99613980D-01 0.95577979D-02 0.19273710D+04 0.51727140D+03 0.34374037D+04 0.13709873D+01  1  2  5  2  6  2       21 -.135615264015D+04
0.947223775017D-01 0.000000000000D+00 0.799632444154D-02 0.573220211971D-01 0.000000000000D+00  6 1 21 -11 11 1 21 4 0.99613980D-01 0.68446058D-02 0.19273710D+04 0.51727140D+03 0.34374037D+04 0.13709873D+01  1  2  6  2  6  2       21 0.190795068783D+04
0.686133546794D-02 0.000000000000D+00 0.000000000000D+00 0.575468666875D-01 0.000000000000D+00  6 1 -1 -11 11 1 -1 4 0.99613980D-01 0.95797050D-02 0.29277365D+04 0.49684836D+03 0.34045556D+04 0.13736735D+01  1  2 12  5  6  2       21 0.542641323093D+01
0.686133546794D-02 0.000000000000D+00 0.000000000000D+00 0.575468666875D-01 0.000000000000D+00  6 1 -1 -11 11 1 -1 4 0.99613980D-01 0.95797050D-02 0.29277365D+04 0.49684836D+03 0.34045556D+04 0.13736735D+01  1  2 12  5  6  2       21 0.542641323093D+01
-.123804477829D-01 0.000000000000D+00 -.106286397959D-02 0.573220211971D-01 0.000000000000D+00  6 1 -1 -11 11 1 -1 4 0.99613980D-01 0.95577979D-02 0.19273710D+04 0.51727140D+03 0.34374037D+04 0.13709873D+01  1  2  5  5  6  2       21 -.102330843755D+02
0.686133615754D-02 0.000000000000D+00 0.000000000000D+00 0.550021691236D-01 0.000000000000D+00  6 1 1 -11 11 1 1 4 0.99613980D-01 0.95797050D-02 0.29277365D+04 0.79944444D+03 0.38608038D+04 0.13429585D+01  1  2 12  6  6  2       21 0.594866682049D+01
0.686133615754D-02 0.000000000000D+00 0.000000000000D+00 0.550021691236D-01 0.000000000000D+00  6 1 1 -11 11 1 1 4 0.99613980D-01 0.95797050D-02 0.29277365D+04 0.79944444D+03 0.38608038D+04 0.13429585D+01  1  2 12  6  6  2       21 0.594866682049D+01
-.123804490272D-01 0.000000000000D+00 -.106286408642D-02 0.573220156381D-01 0.000000000000D+00  6 1 1 -11 11 1 1 4 0.99613980D-01 0.95577979D-02 0.19273710D+04 0.51727192D+03 0.34374044D+04 0.13709872D+01  1  2  5  6  6  2       21 -.122506237490D+02
0.686133546794D-02 0.000000000000D+00 0.000000000000D+00 0.575468666875D-01 0.000000000000D+00  6 1 -2 -11 11 1 -2 4 0.99613980D-01 0.95797050D-02 0.29277365D+04 0.49684836D+03 0.34045556D+04 0.13736735D+01  1  2 12  7  6  2       21 0.524006940762D+01
0.686133546794D-02 0.000000000000D+00 0.000000000000D+00 0.575468666875D-01 0.000000000000D+00  6 1 -4 -11 11 1 -4 4 0.99613980D-01 0.95797050D-02 0.29277365D+04 0.49684836D+03 0.34045556D+04 0.13736735D+01  1  2 12  7  6  2       21 0.307065650768D+01
0.686133546794D-02 0.000000000000D+00 0.000000000000D+00 0.575468666875D-01 0.000000000000D+00  6 1 -2 -11 11 1 -2 4 0.99613980D-01 0.95797050D-02 0.29277365D+04 0.49684836D+03 0.34045556D+04 0.13736735D+01  1  2 12  7  6  2       21 0.524006940762D+01
0.686133546794D-02 0.000000000000D+00 0.000000000000D+00 0.575468666875D-01 0.000000000000D+00  6 1 -4 -11 11 1 -4 4 0.99613980D-01 0.95797050D-02 0.29277365D+04 0.49684836D+03 0.34045556D+04 0.13736735D+01  1  2 12  7  6  2       21 0.307065650768D+01
-.123804477829D-01 0.000000000000D+00 -.106286397959D-02 0.573220211971D-01 0.000000000000D+00  6 1 -2 -11 11 1 -2 4 0.99613980D-01 0.95577979D-02 0.19273710D+04 0.51727140D+03 0.34374037D+04 0.13709873D+01  1  2  5  7  6  2       21 -.988273653150D+01
-.123804477829D-01 0.000000000000D+00 -.106286397959D-02 0.573220211971D-01 0.000000000000D+00  6 1 -4 -11 11 1 -4 4 0.99613980D-01 0.95577979D-02 0.19273710D+04 0.51727140D+03 0.34374037D+04 0.13709873D+01  1  2  5  7  6  2       21 -.579563302929D+01
0.686133546794D-02 0.000000000000D+00 0.000000000000D+00 0.575468666875D-01 0.000000000000D+00  6 1 2 -11 11 1 2 4 0.99613980D-01 0.95797050D-02 0.29277365D+04 0.49684836D+03 0.34045556D+04 0.13736735D+01  1  2 12  8  6  2       21 0.726653532425D+01
0.686133546794D-02 0.000000000000D+00 0.000000000000D+00 0.575468666875D-01 0.000000000000D+00  6 1 4 -11 11 1 4 4 0.99613980D-01 0.95797050D-02 0.29277365D+04 0.49684836D+03 0.34045556D+04 0.13736735D+01  1  2 12  8  6  2       21 0.306574532023D+01
0.686133546794D-02 0.000000000000D+00 0.000000000000D+00 0.575468666875D-01 0.000000000000D+00  6 1 2 -11 11 1 2 4 0.99613980D-01 0.95797050D-02 0.29277365D+04 0.49684836D+03 0.34045556D+04 0.13736735D+01  1  2 12  8  6  2       21 0.726653532425D+01
0.686133546794D-02 0.000000000000D+00 0.000000000000D+00 0.575468666875D-01 0.000000000000D+00  6 1 4 -11 11 1 4 4 0.99613980D-01 0.95797050D-02 0.29277365D+04 0.49684836D+03 0.34045556D+04 0.13736735D+01  1  2 12  8  6  2       21 0.306574532023D+01
-.123804477829D-01 0.000000000000D+00 -.106286397959D-02 0.573220211971D-01 0.000000000000D+00  6 1 2 -11 11 1 2 4 0.99613980D-01 0.95577979D-02 0.19273710D+04 0.51727140D+03 0.34374037D+04 0.13709873D+01  1  2  5  8  6  2       21 -.136957322471D+02
-.123804477829D-01 0.000000000000D+00 -.106286397959D-02 0.573220211971D-01 0.000000000000D+00  6 1 4 -11 11 1 4 4 0.99613980D-01 0.95577979D-02 0.19273710D+04 0.51727140D+03 0.34374037D+04 0.13709873D+01  1  2  5  8  6  2       21 -.578639094608D+01
0.686133546794D-02 0.000000000000D+00 0.000000000000D+00 0.575468666875D-01 0.000000000000D+00  6 1 -3 -11 11 1 -3 4 0.99613980D-01 0.95797050D-02 0.29277365D+04 0.49684836D+03 0.34045556D+04 0.13736735D+01  1  2 12  9  6  2       21 0.456327331626D+01
0.686133546794D-02 0.000000000000D+00 0.000000000000D+00 0.575468666875D-01 0.000000000000D+00  6 1 -5 -11 11 1 -5 4 0.99613980D-01 0.95797050D-02 0.29277365D+04 0.49684836D+03 0.34045556D+04 0.13736735D+01  1  2 12  9  6  2       21 0.198524859415D+01
0.686133546794D-02 0.000000000000D+00 0.000000000000D+00 0.575468666875D-01 0.000000000000D+00  6 1 -3 -11 11 1 -3 4 0.99613980D-01 0.95797050D-02 0.29277365D+04 0.49684836D+03 0.34045556D+04 0.13736735D+01  1  2 12  9  6  2       21 0.456327331626D+01
0.686133546794D-02 0.000000000000D+00 0.000000000000D+00 0.575468666875D-01 0.000000000000D+00  6 1 -5 -11 11 1 -5 4 0.99613980D-01 0.95797050D-02 0.29277365D+04 0.49684836D+03 0.34045556D+04 0.13736735D+01  1  2 12  9  6  2       21 0.198524859415D+01
-.123804477829D-01 0.000000000000D+00 -.106286397959D-02 0.573220211971D-01 0.000000000000D+00  6 1 -3 -11 11 1 -3 4 0.99613980D-01 0.95577979D-02 0.19273710D+04 0.51727140D+03 0.34374037D+04 0.13709873D+01  1  2  5  9  6  2       21 -.860811152267D+01
-.123804477829D-01 0.000000000000D+00 -.106286397959D-02 0.573220211971D-01 0.000000000000D+00  6 1 -5 -11 11 1 -5 4 0.99613980D-01 0.95577979D-02 0.19273710D+04 0.51727140D+03 0.34374037D+04 0.13709873D+01  1  2  5  9  6  2       21 -.374941389115D+01
0.686133546794D-02 0.000000000000D+00 0.000000000000D+00 0.575468666875D-01 0.000000000000D+00  6 1 3 -11 11 1 3 4 0.99613980D-01 0.95797050D-02 0.29277365D+04 0.49684836D+03 0.34045556D+04 0.13736735D+01  1  2 12 10  6  2       21 0.456564324527D+01
0.686133546794D-02 0.000000000000D+00 0.000000000000D+00 0.575468666875D-01 0.000000000000D+00  6 1 5 -11 11 1 5 4 0.99613980D-01 0.95797050D-02 0.29277365D+04 0.49684836D+03 0.34045556D+04 0.13736735D+01  1  2 12 10  6  2       21 0.198360384360D+01
0.686133546794D-02 0.000000000000D+00 0.000000000000D+00 0.575468666875D-01 0.000000000000D+00  6 1 3 -11 11 1 3 4 0.99613980D-01 0.95797050D-02 0.29277365D+04 0.49684836D+03 0.34045556D+04 0.13736735D+01  1  2 12 10  6  2       21 0.456564324527D+01
0.686133546794D-02 0.000000000000D+00 0.000000000000D+00 0.575468666875D-01 0.000000000000D+00  6 1 5 -11 11 1 5 4 0.99613980D-01 0.95797050D-02 0.29277365D+04 0.49684836D+03 0.34045556D+04 0.13736735D+01  1  2 12 10  6  2       21 0.198360384360D+01
-.123804477829D-01 0.000000000000D+00 -.106286397959D-02 0.573220211971D-01 0.000000000000D+00  6 1 3 -11 11 1 3 4 0.99613980D-01 0.95577979D-02 0.19273710D+04 0.51727140D+03 0.34374037D+04 0.13709873D+01  1  2  5 10  6  2       21 -.861256307779D+01
-.123804477829D-01 0.000000000000D+00 -.106286397959D-02 0.573220211971D-01 0.000000000000D+00  6 1 5 -11 11 1 5 4 0.99613980D-01 0.95577979D-02 0.19273710D+04 0.51727140D+03 0.34374037D+04 0.13709873D+01  1  2  5 10  6  2       21 -.374631698402D+01
  </mgrwgt>
  </event>
  <event npLO=' -1 ' npNLO=' 1 '>
  6     66 -.15498555E+02 0.17908179E+02 0.75467711E-02 0.13745470E+00
        1 -1    0    0  502    0 0.00000000E+00 0.00000000E+00 0.18367033E+03 0.18367033E+03 0.00000000E+00 0.0000E+00 0.9000E+01
       21 -1    0    0  501  502 0.00000000E+00 0.00000000E+00 -.17232926E+02 0.17232926E+02 0.00000000E+00 0.0000E+00 0.9000E+01
       23  2    1    2    0    0 -.15307968E+02 -.92934932E+01 0.14139641E+03 0.17011764E+03 0.92878217E+02 0.0000E+00 0.0000E+00
      -13  1    3    3    0    0 0.98684952E+01 0.13383242E+02 0.13451954E+03 0.13554337E+03 0.00000000E+00 0.0000E+00 0.9000E+01
       13  1    3    3    0    0 -.25176463E+02 -.22676735E+02 0.68768679E+01 0.34574266E+02 0.00000000E+00 0.0000E+00 0.9000E+01
        1  1    1    2  501    0 0.15307968E+02 0.92934932E+01 0.25040997E+02 0.30785620E+02 0.00000000E+00 0.0000E+00 0.9000E+01
#aMCatNLO 1  0  0  2  2 0.37079645D+02 0.00000000D+00  -5  6  0 0.00000000D+00 0.00000000D+00 0.00000000D+00 0.00000000D+00 0.00000000D+00
  <mgrwgt>
 -.3905234078D+03   14    2    0
 0.562599074772693D+02 0.000000000000000D+00 0.000000000000000D+00 0.562599074772693D+02
 0.562599074772693D+02 0.000000000000000D+00 0.000000000000000D+00 -.562599074772693D+02
 0.430326090868851D+02 0.986849523587187D+01 0.133832417830451D+02 0.396901383970980D+02
 0.515599383549145D+02 -.251764628586773D+02 -.226767349391681D+02 -.388630757093020D+02
 0.179272675127391D+02 0.153079676228054D+02 0.929349315612302D+01 -.827062687795980D+00
 0.000000000000000D+00 0.000000000000000D+00 -.000000000000000D+00 -.000000000000000D+00
 0.617399975590604D+02 0.000000000000000D+00 0.000000000000000D+00 0.617399975590604D+02
 0.179492886614959D+03 0.000000000000000D+00 0.000000000000000D+00 -.179492886614959D+03
 0.460389099683816D+02 0.189521685884529D+00 0.233289139615743D+02 0.396901383970980D+02
 0.545431604185793D+02 -.367061762563250D+02 -.108293268257788D+02 -.388630757093020D+02
 0.175367144512596D+02 0.114542672812429D+02 0.132533800256885D+02 -.827062687795980D+00
 0.123114099335799D+03 0.250623872891975D+02 -.257529671614839D+02 -.117752889055899D+03
0.253804365118D-03 0.000000000000D+00 0.000000000000D+00 0.510470394642D-03 0.000000000000D+00  6 1 21 -13 13 1 21 2 0.28256974D-01 0.26512193D-02 0.11703198D+04 0.32070289D+03 0.31639000D+04 0.14039752D+01  1  2  2  2  6  2       21 0.579256732635D+02
-.108332390691D-04 0.123221343710D-04 0.559132056413D-06 0.510470394642D-03 0.000000000000D+00  6 1 21 -13 13 1 21 4 0.28256974D-01 0.26512193D-02 0.11703198D+04 0.32070289D+03 0.31639000D+04 0.14039752D+01  1  2  3  2  6  2       21 -.117994663237D+02
0.143983571028D-04 0.000000000000D+00 0.000000000000D+00 0.510470394642D-03 0.000000000000D+00  6 1 21 -13 13 1 21 4 0.28256974D-01 0.26512193D-02 0.11703198D+04 0.32070289D+03 0.31639000D+04 0.14039752D+01  1  2 15  2  6  2       21 0.647744613493D+01
-.500233359310D-02 0.000000000000D+00 -.703306150501D-03 0.510470394642D-03 0.000000000000D+00  6 1 21 -13 13 1 21 4 0.28256974D-01 0.92237565D-02 0.11703198D+04 0.32070289D+03 0.31639000D+04 0.14039752D+01  1  2  5  2  6  2       21 -.364452781616D+03
-.192796255157D-02 0.000000000000D+00 -.265552832582D-03 0.510470394642D-03 0.000000000000D+00  6 1 -1 -13 13 1 -1 4 0.28256974D-01 0.92237565D-02 0.11703198D+04 0.32070289D+03 0.31639000D+04 0.14039752D+01  1  2  5  5  6  2       21 -.978050238367D+01
-.192796282310D-02 0.000000000000D+00 -.265552869982D-03 0.510470342543D-03 0.000000000000D+00  6 1 1 -13 13 1 1 4 0.28256974D-01 0.92237565D-02 0.11703198D+04 0.32070321D+03 0.31639005D+04 0.14039751D+01  1  2  5  6  6  2       21 -.116522466011D+02
-.192796255157D-02 0.000000000000D+00 -.265552832582D-03 0.510470394642D-03 0.000000000000D+00  6 1 -2 -13 13 1 -2 4 0.28256974D-01 0.92237565D-02 0.11703198D+04 0.32070289D+03 0.31639000D+04 0.14039752D+01  1  2  5  7  6  2       21 -.946079056963D+01
-.192796255157D-02 0.000000000000D+00 -.265552832582D-03 0.510470394642D-03 0.000000000000D+00  6 1 -4 -13 13 1 -4 4 0.28256974D-01 0.92237565D-02 0.11703198D+04 0.32070289D+03 0.31639000D+04 0.14039752D+01  1  2  5  7  6  2       21 -.556168365545D+01
-.192796255157D-02 0.000000000000D+00 -.265552832582D-03 0.510470394642D-03 0.000000000000D+00  6 1 2 -13 13 1 2 4 0.28256974D-01 0.92237565D-02 0.11703198D+04 0.32070289D+03 0.31639000D+04 0.14039752D+01  1  2  5  8  6  2       21 -.129888434623D+02
-.192796255157D-02 0.000000000000D+00 -.265552832582D-03 0.510470394642D-03 0.000000000000D+00  6 1 4 -13 13 1 4 4 0.28256974D-01 0.92237565D-02 0.11703198D+04 0.32070289D+03 0.31639000D+04 0.14039752D+01  1  2  5  8  6  2       21 -.555313839361D+01
-.192796255157D-02 0.000000000000D+00 -.265552832582D-03 0.510470394642D-03 0.000000000000D+00  6 1 -3 -13 13 1 -3 4 0.28256974D-01 0.92237565D-02 0.11703198D+04 0.32070289D+03 0.31639000D+04 0.14039752D+01  1  2  5  9  6  2       21 -.825425204568D+01
-.192796255157D-02 0.000000000000D+00 -.265552832582D-03 0.510470394642D-03 0.000000000000D+00  6 1 -5 -13 13 1 -5 4 0.28256974D-01 0.92237565D-02 0.11703198D+04 0.32070289D+03 0.31639000D+04 0.14039752D+01  1  2  5  9  6  2       21 -.358384194620D+01
-.192796255157D-02 0.000000000000D+00 -.265552832582D-03 0.510470394642D-03 0.000000000000D+00  6 1 3 -13 13 1 3 4 0.28256974D-01 0.92237565D-02 0.11703198D+04 0.32070289D+03 0.31639000D+04 0.14039752D+01  1  2  5 10  6  2       21 -.825798779679D+01
-.192796255157D-02 0.000000000000D+00 -.265552832582D-03 0.510470394642D-03 0.000000000000D+00  6 1 5 -13 13 1 5 4 0.28256974D-01 0.92237565D-02 0.11703198D+04 0.32070289D+03 0.31639000D+04 0.14039752D+01  1  2  5 10  6  2       21 -.358099236867D+01
  </mgrwgt>
  </event>
  <event npLO=' -1 ' npNLO=' 1 '>
  6     66 0.15498555E+02 0.27423388E+02 0.75467711E-02 0.12093909E+00
        1 -1    0    0  502    0 0.00000000E+00 0.00000000E+00 0.11720143E+04 0.11720143E+04 0.00000000E+00 0.0000E+00 0.9000E+01
       21 -1    0    0  501  502 0.00000000E+00 0.00000000E+00 -.69719015E+01 0.69719015E+01 0.00000000E+00 0.0000E+00 0.9000E+01
       23  2    1    2    0    0 0.11567738E+02 -.24864225E+02 0.11319511E+04 0.11360086E+04 0.91924703E+02 0.0000E+00 0.0000E+00
      -11  1    3    3    0    0 -.19294455E+02 0.23177124E+02 0.19489813E+03 0.19721748E+03 0.00000000E+00 0.0000E+00 0.9000E+01
       11  1    3    3    0    0 0.30862193E+02 -.48041349E+02 0.93705298E+03 0.93879110E+03 0.00000000E+00 0.0000E+00 0.9000E+01
        1  1    1    2  501    0 -.11567738E+02 0.24864225E+02 0.33091299E+02 0.42977626E+02 0.00000000E+00 0.0000E+00 0.9000E+01
#aMCatNLO 1  0  0  2  1 0.14306923D+02 0.00000000D+00  -5  6  0 0.00000000D+00 0.00000000D+00 0.00000000D+00 0.00000000D+00 0.00000000D+00
  <mgrwgt>
 0.2640762889D+03   14    2    0
 0.903945151217002D+02 0.000000000000000D+00 0.000000000000000D+00 0.903945151217002D+02
 0.903945151217002D+02 0.000000000000000D+00 0.000000000000000D+00 -.903945151217002D+02
 0.301572942368957D+02 -.192944548240045D+02 0.231771241098295D+02 0.855963358701679D-01
 0.836074193646006D+02 0.308621929195828D+02 -.480413487165941D+02 0.610717155031136D+02
 0.670243166419042D+02 -.115677380955782D+02 0.248642246067646D+02 -.611573118389837D+02
 0.000000000000000D+00 0.000000000000000D+00 -.000000000000000D+00 -.000000000000000D+00
 0.120472722851195D+03 0.000000000000000D+00 0.000000000000000D+00 0.120472722851195D+03
 0.197354684596332D+03 0.000000000000000D+00 0.000000000000000D+00 -.197354684596332D+03
 0.468886522522911D+02 -.352657489172144D+02 0.309008954014533D+02 0.855963358701679D-01
 0.692866867517958D+02 -.832099190205536D+00 -.327138829472425D+02 0.610717155031136D+02
 0.848584537793165D+02 -.430523846555273D+02 0.400903050863698D+02 -.611573118389837D+02
 0.116793614664124D+03 0.791502327629473D+02 -.382773175405806D+02 -.768819617451370D+02
0.390527341676D-02 0.000000000000D+00 0.000000000000D+00 0.492636131142D-02 0.000000000000D+00  6 1 21 -11 11 1 21 2 0.18030989D+00 0.10726002D-02 0.32879259D+04 0.75204223D+03 0.38038951D+04 0.13467854D+01  1  2  2  2  6  2       21 0.256549459691D+03
0.102492596888D-03 0.189599984912D-03 0.860333334041D-05 0.492636131142D-02 0.000000000000D+00  6 1 21 -11 11 1 21 4 0.18030989D+00 0.10726002D-02 0.32879259D+04 0.75204223D+03 0.38038951D+04 0.13467854D+01  1  2  3  2  6  2       21 -.209661145590D+02
0.336800610901D-03 0.000000000000D+00 0.000000000000D+00 0.492636131142D-02 0.000000000000D+00  6 1 21 -11 11 1 21 4 0.18030989D+00 0.10726002D-02 0.32879259D+04 0.75204223D+03 0.38038951D+04 0.13467854D+01  1  2 15  2  6  2       21 0.401318646910D+02
0.604507031169D-03 0.000000000000D+00 -.808716607100D-02 0.492636131142D-02 0.000000000000D+00  6 1 21 -11 11 1 21 4 0.18030989D+00 0.31838670D-02 0.32879259D+04 0.75204223D+03 0.38038951D+04 0.13467854D+01  1  2  5  2  6  2       21 -.134993305839D+02
0.576276335933D-03 0.000000000000D+00 -.284477844946D-02 0.492636131142D-02 0.000000000000D+00  6 1 -1 -11 11 1 -1 4 0.18030989D+00 0.31838670D-02 0.32879259D+04 0.75204223D+03 0.38038951D+04 0.13467854D+01  1  2  5  5  6  2       21 0.224210294725D+00
0.576276335933D-03 0.000000000000D+00 -.284477844946D-02 0.492636085136D-02 0.000000000000D+00  6 1 1 -11 11 1 1 4 0.18030989D+00 0.31838670D-02 0.32879259D+04 0.75204298D+03 0.38038960D+04 0.13467854D+01  1  2  5  6  6  2       21 0.242187059998D+00
0.576276335933D-03 0.000000000000D+00 -.284477844946D-02 0.492636131142D-02 0.000000000000D+00  6 1 -2 -11 11 1 -2 4 0.18030989D+00 0.31838670D-02 0.32879259D+04 0.75204223D+03 0.38038951D+04 0.13467854D+01  1  2  5  7  6  2       21 0.223139249648D+00
0.576276335933D-03 0.000000000000D+00 -.284477844946D-02 0.492636131142D-02 0.000000000000D+00  6 1 -4 -11 11 1 -4 4 0.18030989D+00 0.31838670D-02 0.32879259D+04 0.75204223D+03 0.38038951D+04 0.13467854D+01  1  2  5  7  6  2       21 0.152229164749D+00
0.576276335933D-03 0.000000000000D+00 -.284477844946D-02 0.492636131142D-02 0.000000000000D+00  6 1 2 -11 11 1 2 4 0.18030989D+00 0.31838670D-02 0.32879259D+04 0.75204223D+03 0.38038951D+04 0.13467854D+01  1  2  5  8  6  2       21 0.254385056758D+00
0.576276335933D-03 0.000000000000D+00 -.284477844946D-02 0.492636131142D-02 0.000000000000D+00  6 1 4 -11 11 1 4 4 0.18030989D+00 0.31838670D-02 0.32879259D+04 0.75204223D+03 0.38038951D+04 0.13467854D+01  1  2  5  8  6  2       21 0.152184290879D+00
0.576276335933D-03 0.000000000000D+00 -.284477844946D-02 0.492636131142D-02 0.000000000000D+00  6 1 -3 -11 11 1 -3 4 0.18030989D+00 0.31838670D-02 0.32879259D+04 0.75204223D+03 0.38038951D+04 0.13467854D+01  1  2  5  9  6  2       21 0.203924477998D+00
0.576276335933D-03 0.000000000000D+00 -.284477844946D-02 0.492636131142D-02 0.000000000000D+00  6 1 -5 -11 11 1 -5 4 0.18030989D+00 0.31838670D-02 0.32879259D+04 0.75204223D+03 0.38038951D+04 0.13467854D+01  1  2  5  9  6  2       21 0.102285948273D+00
0.576276335933D-03 0.000000000000D+00 -.284477844946D-02 0.492636131142D-02 0.000000000000D+00  6 1 3 -11 11 1 3 4 0.18030989D+00 0.31838670D-02 0.32879259D+04 0.75204223D+03 0.38038951D+04 0.13467854D+01  1  2  5 10  6  2       21 0.203593317030D+00
0.576276335933D-03 0.000000000000D+00 -.284477844946D-02 0.492636131142D-02 0.000000000000D+00  6 1 5 -11 11 1 5 4 0.18030989D+00 0.31838670D-02 0.32879259D+04 0.75204223D+03 0.38038951D+04 0.13467854D+01  1  2  5 10  6  2       21 0.102270805266D+00
  </mgrwgt>
  </event>
  <event npLO=' -1 ' npNLO=' 1 '>
  7     66 0.15498555E+02 0.16411712E+02 0.75467711E-02 0.14004847E+00
        1 -1    0    0  502    0 0.00000000E+00 0.00000000E+00 0.23617207E+03 0.23617207E+03 0.00000000E+00 0.0000E+00 0.9000E+01
       21 -1    0    0  501  503 0.00000000E+00 0.00000000E+00 -.62899790E+03 0.62899790E+03 0.00000000E+00 0.0000E+00 0.9000E+01
       23  2    1    2    0    0 0.30005928E+01 0.31505616E+00 0.22046802E+03 0.23876123E+03 0.91606067E+02 0.0000E+00 0.0000E+00
      -13  1    3    3    0    0 0.20591348E+02 -.12972644E+02 0.86947560E+01 0.25843604E+02 0.00000000E+00 0.0000E+00 0.9000E+01
       13  1    3    3    0    0 -.17590755E+02 0.13287700E+02 0.21177326E+03 0.21291762E+03 0.00000000E+00 0.0000E+00 0.9000E+01
        1  1    1    2  501    0 0.65344880E+01 -.31257609E+02 -.35660581E+02 0.47868723E+02 0.00000000E+00 0.0000E+00 0.9000E+01
       21  1    1    2  502  503 -.95350809E+01 0.30942553E+02 -.57763327E+03 0.57854002E+03 0.00000000E+00 0.0000E+00 0.9000E+01
#aMCatNLO 2  0  0  2  5 0.38407146D+01 0.00000000D+00  -5  6  0 0.00000000D+00 0.00000000D+00 0.00000000D+00 0.00000000D+00 0.00000000D+00
  <mgrwgt>
 0.1506308952D+04    1    2    0
 0.108345025398929D+03 0.000000000000000D+00 0.000000000000000D+00 0.108345025398929D+03
 0.108345025398929D+03 0.000000000000000D+00 0.000000000000000D+00 -.108345025398929D+03
 0.240110166981332D+02 0.194866899836747D+02 -.938788834204742D+01 -.104242692230885D+02
 0.103697314804828D+03 -.220458677409489D+02 0.277451087631666D+02 0.974542033624009D+02
 0.889817192948975D+02 0.255917775727414D+01 -.183572204211192D+02 -.870299341393124D+02
 0.000000000000000D+00 -.000000000000000D+00 0.000000000000000D+00 -.000000000000000D+00
 0.109758564604514D+03 0.000000000000000D+00 0.000000000000000D+00 0.109758564604514D+03
 0.135344095102631D+04 0.000000000000000D+00 0.000000000000000D+00 -.135344095102631D+04
 0.264756204855848D+02 0.205913478063472D+02 -.129726437852631D+02 -.104242692230885D+02
 0.999165621074224D+02 -.175907549728454D+02 0.132876999458719D+02 0.974542033624009D+02
 0.927035441045313D+02 0.653448803092445D+01 -.312576089843968D+02 -.870299341393124D+02
 0.124410378893328D+04 -.953508086442627D+01 0.309425528237880D+02 -.124368238642179D+04
0.112677176832D+01 0.000000000000D+00 0.000000000000D+00 0.301245264442D-01 0.106924665551D+00  6 1 21 -13 13 1 21 4 0.36334164D-01 0.96768908D-01 0.30632979D+04 0.96542316D+01 0.38187504D+04 0.17733305D+01  1  2  1  2  6  2       21 0.150630895237D+04
  </mgrwgt>
  </event>
  <event npLO=' -1 ' npNLO=' 1 '>
  7     66 -.15498555E+02 0.13246342E+02 0.75467711E-02 0.15812710E+00
        1 -1    0    0  502    0 0.00000000E+00 0.00000000E+00 0.22561617E+04 0.22561617E+04 0.00000000E+00 0.0000E+00 0.9000E+01
       21 -1    0    0  501  503 0.00000000E+00 0.00000000E+00 -.19072978E+01 0.19072978E+01 0.00000000E+00 0.0000E+00 0.9000E+01
       23  2    1    2    0    0 0.45928925E-01 -.64815259E+01 0.18221153E+04 0.18243825E+04 0.90694029E+02 0.0000E+00 0.0000E+00
      -11  1    3    3    0    0 0.38248496E+02 0.19147769E+02 0.68246098E+03 0.68380009E+03 0.00000000E+00 0.0000E+00 0.9000E+01
       11  1    3    3    0    0 -.38202567E+02 -.25629295E+02 0.11396543E+04 0.11405824E+04 0.00000000E+00 0.0000E+00 0.9000E+01
        1  1    1    2  501    0 -.33894388E+01 0.19848334E+02 0.33116908E+03 0.33178066E+03 0.00000000E+00 0.0000E+00 0.9000E+01
       21  1    1    2  502  503 0.33435099E+01 -.13366808E+02 0.10097002E+03 0.10190582E+03 0.00000000E+00 0.0000E+00 0.9000E+01
#aMCatNLO 2  0  0  2  5 0.14988161D+02 0.00000000D+00  -5  6  0 0.00000000D+00 0.00000000D+00 0.00000000D+00 0.00000000D+00 0.00000000D+00
  <mgrwgt>
 -.2420757542D+03    3    2    0
 0.552634161431232D+02 0.000000000000000D+00 0.000000000000000D+00 0.552634161431232D+02
 0.552634161431232D+02 0.000000000000000D+00 0.000000000000000D+00 -.552634161431232D+02
 0.427404247083376D+02 0.395488139503679D+02 0.139493085539669D+02 -.824936423213877D+01
 0.497329919548437D+02 -.367387302091246D+02 -.314814751199661D+02 0.115131627137229D+02
 0.180534156230651D+02 -.281008374124335D+01 0.175321665659992D+02 -.326379848158414D+01
 0.000000000000000D+00 0.000000000000000D+00 -.000000000000000D+00 -.000000000000000D+00
 0.583129561305123D+02 0.000000000000000D+00 0.000000000000000D+00 0.583129561305123D+02
 0.737944438269204D+02 0.000000000000000D+00 0.000000000000000D+00 -.737944438269204D+02
 0.435618697026586D+02 0.382484957302638D+02 0.191477689595657D+02 -.824936423213877D+01
 0.474220389956234D+02 -.382025668056122D+02 -.256292948848092D+02 0.115131627137229D+02
 0.203984564339270D+02 -.338943878822164D+01 0.198483336595123D+02 -.326379848158414D+01
 0.207250348252236D+02 0.334350986356997D+01 -.133668077342687D+02 -.154814876964081D+02
-.108258391870D-02 0.000000000000D+00 0.000000000000D+00 0.105496748290D-02 0.000000000000D+00  6 1 21 -11 11 1 21 4 0.32894973D+00 0.30962247D-03 0.37632798D+04 0.29647253D+03 0.29993369D+04 0.14096396D+01  1  2 13  2  6  2       21 -.215645865915D+03
-.108258391870D-02 0.000000000000D+00 0.000000000000D+00 0.105496748290D-02 0.000000000000D+00  6 1 21 -11 11 1 21 4 0.32894973D+00 0.30962247D-03 0.37632798D+04 0.29647253D+03 0.29993369D+04 0.14096396D+01  1  2 13  2  6  2       21 -.215645865915D+03
0.105753822069D-02 0.000000000000D+00 0.000000000000D+00 0.104833322324D-02 0.116736909757D-03  6 1 21 -11 11 1 21 4 0.34710180D+00 0.29343043D-03 0.37632798D+04 0.29647253D+03 0.29993369D+04 0.14096396D+01  1  2  1  2  6  2       21 0.189215977622D+03
  </mgrwgt>
  </event>
  <event npLO=' -1 ' npNLO=' 1 '>
  7     66 0.15498555E+02 0.10837427E+02 0.75467711E-02 0.17167574E+00
        1 -1    0    0  502    0 0.00000000E+00 0.00000000E+00 0.38108810E+03 0.38108810E+03 0.00000000E+00 0.0000E+00 0.9000E+01
       21 -1    0    0  501  502 0.00000000E+00 0.00000000E+00 -.90037213E+01 0.90037213E+01 0.00000000E+00 0.0000E+00 0.9000E+01
       23  2    1    2    0    0 0.90400954E+00 -.10146348E+02 0.34642689E+03 0.35968364E+03 0.96213111E+02 0.0000E+00 0.0000E+00
      -13  1    3    3    0    0 0.25419382E+02 -.27982605E+02 0.55327223E+02 0.67009497E+02 0.00000000E+00 0.0000E+00 0.9000E+01
       13  1    3    3    0    0 -.24515372E+02 0.17836257E+02 0.29109967E+03 0.29267414E+03 0.00000000E+00 0.0000E+00 0.9000E+01
        1  1    1    2  503    0 -.28248138E+01 0.11755769E+02 0.25071759E+02 0.27834705E+02 0.00000000E+00 0.0000E+00 0.9000E+01
       21  1    1    2  501  503 0.19208042E+01 -.16094212E+01 0.58573076E+00 0.25734813E+01 0.00000000E+00 0.0000E+00 0.9000E+01
#aMCatNLO 2  0  0  5  2 0.60379259D+01 0.00000000D+00  -5  6  0 0.00000000D+00 0.00000000D+00 0.00000000D+00 0.00000000D+00 0.00000000D+00
  <mgrwgt>
 0.4326039230D+03    2    2    0
 0.585765403039369D+02 0.000000000000000D+00 0.000000000000000D+00 0.585765403039369D+02
 0.585765403039369D+02 -.000000000000000D+00 -.000000000000000D+00 -.585765403039369D+02
 0.474107462212323D+02 0.255346727064650D+02 -.292766005622579D+02 -.271779323449340D+02
 0.506737722776257D+02 -.243929713794857D+02 0.164624671730202D+02 0.412528946705743D+02
 0.190685621090159D+02 -.114170132697931D+01 0.128141333892376D+02 -.140749623256403D+02
 0.000000000000000D+00 0.000000000000000D+00 0.000000000000000D+00 -.000000000000000D+00
 0.585765403039369D+02 0.000000000000000D+00 0.000000000000000D+00 0.585765403039369D+02
 0.585765403039369D+02 -.000000000000000D+00 -.000000000000000D+00 -.585765403039369D+02
 0.474034616127866D+02 0.254193815311367D+02 -.279826049573235D+02 -.285992488581749D+02
 0.499871554625217D+02 -.245153719873051D+02 0.178362570412264D+02 0.397439326478605D+02
 0.130536963390952D+02 -.282481376488827D+01 0.117557690967406D+02 -.492151483296821D+01
 0.670876719347033D+01 0.192080422105668D+01 -.160942118064346D+01 -.622316895671737D+01
-.344823493030D-03 0.000000000000D+00 0.000000000000D+00 0.363026875315D-03 0.000000000000D+00  6 1 21 -13 13 1 21 4 0.58628939D-01 0.13851879D-02 0.17105653D+04 0.13796652D+03 0.29524747D+04 0.14687890D+01  1  2 13  3  6  5        1 -.198113863810D+03
0.109778440623D-02 0.000000000000D+00 0.000000000000D+00 0.355759296680D-03 0.991194294307D-03  6 1 21 -13 13 1 21 4 0.58628939D-01 0.13851879D-02 0.17105653D+04 0.13796652D+03 0.29524747D+04 0.14687890D+01  1  2  1  3  6  5        1 0.630717786766D+03
  </mgrwgt>
  </event>
  <event npLO=' -1 ' npNLO=' 1 '>
  7     66 -.15498555E+02 0.17623409E+02 0.75467711E-02 0.16071106E+00
        5 -1    0    0  502    0 0.00000000E+00 0.00000000E+00 0.79479911E+02 0.79479911E+02 0.00000000E+00 0.0000E+00 0.9000E+01
       21 -1    0    0  501  503 0.00000000E+00 0.00000000E+00 -.42464755E+02 0.42464755E+02 0.00000000E+00 0.0000E+00 0.9000E+01
       23  2    1    2    0    0 -.45947974E+01 -.19374793E+02 0.37686288E+02 0.10067291E+03 0.91204627E+02 0.0000E+00 0.0000E+00
      -13  1    3    3    0    0 -.11492999E+02 0.15391058E+02 0.57111479E+02 0.60255247E+02 0.00000000E+00 0.0000E+00 0.9000E+01
       13  1    3    3    0    0 0.68982017E+01 -.34765851E+02 -.19425191E+02 0.40417665E+02 0.00000000E+00 0.0000E+00 0.9000E+01
        5  1    1    2  501    0 0.59203127E+01 0.13904913E+02 0.16111133E+01 0.15198434E+02 0.00000000E+00 0.0000E+00 0.9000E+01
       21  1    1    2  502  503 -.13255153E+01 0.54698801E+01 -.22822449E+01 0.60733204E+01 0.00000000E+00 0.0000E+00 0.9000E+01
#aMCatNLO 2  0  0  2  5 0.62733905D+01 0.00000000D+00  -5  6  0 0.00000000D+00 0.00000000D+00 0.00000000D+00 0.00000000D+00 0.00000000D+00
  <mgrwgt>
 -.1288767856D+03    3    2    0
 0.544293265666916D+02 0.000000000000000D+00 0.000000000000000D+00 0.544293265666916D+02
 0.544293265666916D+02 0.000000000000000D+00 0.000000000000000D+00 -.544293265666916D+02
 0.444332630894511D+02 -.120277688293390D+02 0.175978423547493D+02 0.389867104308860D+02
 0.482028748542921D+02 0.630091853336926D+01 -.323010984913344D+02 -.352200881047663D+02
 0.162225151896400D+02 0.572685029596974D+01 0.147032561365852D+02 -.376662232611970D+01
 0.000000000000000D+00 -.000000000000000D+00 0.000000000000000D+00 -.000000000000000D+00
 0.558336159846231D+02 0.000000000000000D+00 0.000000000000000D+00 0.558336159846231D+02
 0.604491554451221D+02 0.000000000000000D+00 0.000000000000000D+00 -.604491554451221D+02
 0.434619060607325D+02 -.114929990247370D+02 0.153910578462812D+02 0.389867104308860D+02
 0.499670309200536D+02 0.689820165866865D+01 -.347658508702784D+02 -.352200881047663D+02
 0.155751131342445D+02 0.592031270863675D+01 0.139049129025984D+02 -.376662232611970D+01
 0.727872131471461D+01 -.132551534256838D+01 0.546988012139875D+01 -.461553946049901D+01
-.900295418288D-03 0.000000000000D+00 0.000000000000D+00 0.172374887659D-02 0.000000000000D+00  6 5 21 -13 13 5 21 4 0.11920136D-01 0.67015931D-02 0.14210372D+04 0.45203711D+03 0.32841005D+04 0.13800433D+01  1  2 13  2  6  2       21 -.733901520658D+02
-.900295418288D-03 0.000000000000D+00 0.000000000000D+00 0.172374887659D-02 0.000000000000D+00  6 5 21 -13 13 5 21 4 0.11920136D-01 0.67015931D-02 0.14210372D+04 0.45203711D+03 0.32841005D+04 0.13800433D+01  1  2 13  2  6  2       21 -.733901520658D+02
0.220371788630D-03 0.000000000000D+00 0.000000000000D+00 0.183138855382D-02 0.192402438118D-02  6 5 21 -13 13 5 21 4 0.12227679D-01 0.65330392D-02 0.14210372D+04 0.45203711D+03 0.32841005D+04 0.13800433D+01  1  2  1  2  6  2       21 0.179035184861D+02
  </mgrwgt>
  </event>
  <event npLO=' -1 ' npNLO=' 1 '>
  6     66 -.15498555E+02 0.10231322E+02 0.75467711E-02 0.17717637E+00
        1 -1    0    0  502    0 0.00000000E+00 0.00000000E+00 0.48319153E+02 0.48319153E+02 0.00000000E+00 0.0000E+00 0.9000E+01
       21 -1    0    0  501  502 -.00000000E+00 -.00000000E+00 -.64744184E+02 0.64744184E+02 0.00000000E+00 0.0000E+00 0.9000E+01
       23  2    1    2    0    0 -.85050493E+01 0.56871865E+01 0.37420885E+01 0.90449345E+02 0.89790873E+02 0.0000E+00 0.0000E+00
      -13  1    3    3    0    0 -.24378892E+02 0.17465276E+02 0.39498435E+02 0.49593273E+02 0.00000000E+00 0.0000E+00 0.9000E+01
       13  1    3    3    0    0 0.15873843E+02 -.11778090E+02 -.35756347E+02 0.40856072E+02 0.00000000E+00 0.0000E+00 0.9000E+01
        1  1    1    2  501    0 0.85050493E+01 -.56871865E+01 -.20167120E+02 0.22613993E+02 0.00000000E+00 0.0000E+00 0.9000E+01
#aMCatNLO 1  0  0  5  2 0.14117727D+01 0.00000000D+00  -5  6  0 0.00000000D+00 0.00000000D+00 0.00000000D+00 0.00000000D+00 0.00000000D+00
  <mgrwgt>
 -.6625365775D+03    7    2    0
 0.559319601805977D+02 0.000000000000000D+00 0.000000000000000D+00 0.559319601805977D+02
 0.559319601805977D+02 -.000000000000000D+00 -.000000000000000D+00 -.559319601805977D+02
 0.559245906539175D+02 -.243788924696661D+02 0.174652763953361D+02 0.472037452136503D+02
 0.360440147220935D+02 0.158738431952135D+02 -.117780898535581D+02 -.301408145029590D+02
 0.198953149851843D+02 0.850504927445263D+01 -.568718654177801D+01 -.170629307106913D+02
 0.000000000000000D+00 0.000000000000000D+00 -.000000000000000D+00 0.000000000000000D+00
 0.559319601805977D+02 0.000000000000000D+00 0.000000000000000D+00 0.559319601805977D+02
 0.559319601805977D+02 -.000000000000000D+00 -.000000000000000D+00 -.559319601805977D+02
 0.555859568196458D+02 -.242340603129599D+02 0.173684295146354D+02 0.469131812233885D+02
 0.362634516197185D+02 0.159677575964384D+02 -.118408888687654D+02 -.303292266883710D+02
 0.183861798901781D+02 0.824172170989228D+01 -.403545793060065D+01 -.159323794048796D+02
 0.162833203165287D+01 0.245810066292390D-01 -.149208271526937D+01 -.651575130137910D+00
0.261178991837D-03 0.000000000000D+00 0.000000000000D+00 0.298276204624D-02 0.000000000000D+00  6 1 21 -13 13 1 21 2 0.74337159D-02 0.99606438D-02 0.89960852D+03 0.10467995D+03 0.25302522D+04 0.14921340D+01  1  2  2  3  6  5        1 0.448914837525D+02
0.253072017787D-04 0.126801705353D-04 0.575378389295D-06 0.298276204624D-02 0.000000000000D+00  6 1 21 -13 13 1 21 4 0.74337159D-02 0.99606438D-02 0.89960852D+03 0.10467995D+03 0.25302522D+04 0.14921340D+01  1  2  3  3  6  5        1 -.525616964486D+00
0.197665110254D-04 0.000000000000D+00 0.000000000000D+00 0.298276204624D-02 0.000000000000D+00  6 1 21 -13 13 1 21 4 0.74337159D-02 0.99606438D-02 0.89960852D+03 0.10467995D+03 0.25302522D+04 0.14921340D+01  1  2 15  3  6  5        1 0.756434644700D+01
0.328935018736D-07 0.000000000000D+00 0.000000000000D+00 0.304284599263D-02 0.000000000000D+00  6 1 21 -13 13 1 21 4 0.74337159D-02 0.99606438D-02 0.91093096D+03 0.88327552D+02 0.24840086D+04 0.15070877D+01  1  2 12  3  6  5        1 0.130814055095D-01
-.207268189896D-02 0.000000000000D+00 0.000000000000D+00 0.298276204624D-02 0.000000000000D+00  6 1 21 -13 13 1 21 4 0.74337159D-02 0.99606438D-02 0.89960852D+03 0.10467995D+03 0.25302522D+04 0.14921340D+01  1  2  4  3  6  5        1 -.793184186024D+03
-.178179886767D-02 0.000000000000D+00 0.000000000000D+00 0.298276204624D-02 0.000000000000D+00  6 1 21 -13 13 1 21 4 0.74337159D-02 0.99606438D-02 0.89960852D+03 0.10467995D+03 0.25302522D+04 0.14921340D+01  1  2  5  3  6  5        1 -.681867625329D+03
0.198746233104D-02 0.000000000000D+00 -.000000000000D+00 0.298276204624D-02 0.000000000000D+00  6 1 21 -13 13 1 21 4 0.74337159D-02 0.99606438D-02 0.89960852D+03 0.10467995D+03 0.25302522D+04 0.14921340D+01  1  2  6  3  6  5        1 0.760571939230D+03
  </mgrwgt>
  </event>
  <event npLO=' -1 ' npNLO=' 1 '>
  6     66 0.15498555E+02 0.51841910E+02 0.75467711E-02 0.13019339E+00
        3 -1    0    0  502    0 0.00000000E+00 0.00000000E+00 0.44354710E+03 0.44354710E+03 0.00000000E+00 0.0000E+00 0.9000E+01
       21 -1    0    0  501  502 0.00000000E+00 0.00000000E+00 -.45458022E+02 0.45458022E+02 0.00000000E+00 0.0000E+00 0.9000E+01
       23  2    1    2    0    0 0.41508128E+02 0.31058959E+02 0.42022285E+03 0.43263592E+03 0.88876422E+02 0.0000E+00 0.0000E+00
      -11  1    3    3    0    0 0.19227512E+02 -.29142967E+02 0.20824574E+03 0.21115231E+03 0.00000000E+00 0.0000E+00 0.9000E+01
       11  1    3    3    0    0 0.22280616E+02 0.60201926E+02 0.21197711E+03 0.22148362E+03 0.00000000E+00 0.0000E+00 0.9000E+01
        3  1    1    2  501    0 -.41508128E+02 -.31058959E+02 -.22133762E+02 0.56369203E+02 0.00000000E+00 0.0000E+00 0.9000E+01
#aMCatNLO 1  0  0  2  5 0.68323254D+01 0.00000000D+00  -5  6  0 0.00000000D+00 0.00000000D+00 0.00000000D+00 0.00000000D+00 0.00000000D+00
  <mgrwgt>
 0.6912914227D+02   49    2    0
 0.141995682786568D+03 0.000000000000000D+00 0.000000000000000D+00 0.141995682786568D+03
 0.141995682786568D+03 0.000000000000000D+00 0.000000000000000D+00 -.141995682786568D+03
 0.716719186335099D+02 0.192275119598184D+02 -.291429665301393D+02 0.625927648076571D+02
 0.842309094407816D+02 0.222806164182542D+02 0.602019255111280D+02 0.545357534283370D+02
 0.128088537498844D+03 -.415081283780726D+02 -.310589589809886D+02 -.117128518235994D+03
 0.000000000000000D+00 0.000000000000000D+00 0.000000000000000D+00 -.000000000000000D+00
 0.142126481685182D+03 0.000000000000000D+00 0.000000000000000D+00 0.142126481685182D+03
 0.271871961548222D+03 0.000000000000000D+00 0.000000000000000D+00 -.271871961548222D+03
 0.714955929532996D+02 0.176088575018635D+02 -.297269867789572D+02 0.625927648076571D+02
 0.832601352747152D+02 0.203869596577825D+02 0.595186827801108D+02 0.545357534283370D+02
 0.129317703712741D+03 -.444183679654243D+02 -.321089909007549D+02 -.117128518235994D+03
 0.129925011292648D+03 0.642255080577835D+01 0.231729489960138D+01 -.129745479863039D+03
0.400428870177D-03 0.000000000000D+00 0.000000000000D+00 0.762406830017D-03 0.000000000000D+00  6 3 21 -11 11 3 21 2 0.68238016D-01 0.69935418D-02 0.56963919D+04 0.26875837D+04 0.59855850D+04 0.12733958D+01  1  2  2  2  6  2       21 0.137789460251D+01
0.389162142670D-05 0.194407150644D-04 0.882146441905D-06 0.762406830017D-03 0.000000000000D+00  6 3 21 -11 11 3 21 4 0.68238016D-01 0.69935418D-02 0.56963919D+04 0.26875837D+04 0.59855850D+04 0.12733958D+01  1  2  3  2  6  2       21 -.595272307163D-01
0.320678939348D-04 0.000000000000D+00 0.000000000000D+00 0.762406830017D-03 0.000000000000D+00  6 3 21 -11 11 3 21 4 0.68238016D-01 0.69935418D-02 0.56963919D+04 0.26875837D+04 0.59855850D+04 0.12733958D+01  1  2 15  2  6  2       21 0.178931958092D+00
0.748539554253D-01 0.000000000000D+00 0.000000000000D+00 0.769234433441D-03 0.000000000000D+00  6 3 21 -11 11 3 21 4 0.68238016D-01 0.13402516D-01 0.63282610D+04 0.24149801D+04 0.56776455D+04 0.12790850D+01  1  2 12  2  6  2       21 0.144674415080D+03
0.748539554253D-01 0.000000000000D+00 0.000000000000D+00 0.769234433441D-03 0.000000000000D+00  6 3 21 -11 11 3 21 4 0.68238016D-01 0.13402516D-01 0.63282610D+04 0.24149801D+04 0.56776455D+04 0.12790850D+01  1  2 12  2  6  2       21 0.144674415080D+03
-.704348677430D-01 0.000000000000D+00 0.000000000000D+00 0.762406830017D-03 0.000000000000D+00  6 3 21 -11 11 3 21 4 0.68238016D-01 0.69935418D-02 0.56963919D+04 0.26875837D+04 0.59855850D+04 0.12733958D+01  1  2  4  2  6  2       21 -.393011428467D+03
-.158413130141D+00 0.000000000000D+00 -.444709570864D-03 0.762406830017D-03 0.000000000000D+00  6 3 21 -11 11 3 21 4 0.68238016D-01 0.13394732D-01 0.56963919D+04 0.26875837D+04 0.59855850D+04 0.12733958D+01  1  2  5  2  6  2       21 -.301366973164D+03
0.813765764721D-01 0.000000000000D+00 0.215235645875D-03 0.762406830017D-03 0.000000000000D+00  6 3 21 -11 11 3 21 4 0.68238016D-01 0.69935418D-02 0.56963919D+04 0.26875837D+04 0.59855850D+04 0.12733958D+01  1  2  6  2  6  2       21 0.454123285543D+03
0.907381104109D-02 0.000000000000D+00 0.000000000000D+00 0.762406830017D-03 0.614893526709D-03  6 3 21 -11 11 3 21 4 0.68300873D-01 0.13390181D-01 0.63282610D+04 0.24149801D+04 0.56776455D+04 0.12790850D+01  1  2 11  2  6  2       21 0.175319791530D+02
0.164064747857D-01 0.000000000000D+00 0.000000000000D+00 0.769234433441D-03 0.000000000000D+00  6 3 -3 -11 11 3 -3 4 0.68238016D-01 0.13402516D-01 0.63282610D+04 0.24149801D+04 0.56776455D+04 0.12790850D+01  1  2 12  5  6  2       21 0.194319561713D+01
0.164064747857D-01 0.000000000000D+00 0.000000000000D+00 0.769234433441D-03 0.000000000000D+00  6 3 -3 -11 11 3 -3 4 0.68238016D-01 0.13402516D-01 0.63282610D+04 0.24149801D+04 0.56776455D+04 0.12790850D+01  1  2 12  5  6  2       21 0.194319561713D+01
-.346592932200D-01 0.000000000000D+00 -.102999231064D-03 0.762406830017D-03 0.000000000000D+00  6 3 -3 -11 11 3 -3 4 0.68238016D-01 0.13394732D-01 0.56963919D+04 0.26875837D+04 0.59855850D+04 0.12733958D+01  1  2  5  5  6  2       21 -.404459180211D+01
0.224174254728D-02 0.000000000000D+00 0.000000000000D+00 0.762406830017D-03 0.151643943125D-03  6 3 -3 -11 11 3 -3 4 0.68300873D-01 0.13390181D-01 0.63282610D+04 0.24149801D+04 0.56776455D+04 0.12790850D+01  1  2 11  5  6  2       21 0.265413363310D+00
0.164064747857D-01 0.000000000000D+00 0.000000000000D+00 0.769234433441D-03 0.000000000000D+00  6 3 3 -11 11 3 3 4 0.68238016D-01 0.13402516D-01 0.63282610D+04 0.24149801D+04 0.56776455D+04 0.12790850D+01  1  2 12  6  6  2       21 0.194510144142D+01
0.164064747857D-01 0.000000000000D+00 0.000000000000D+00 0.769234433441D-03 0.000000000000D+00  6 3 3 -11 11 3 3 4 0.68238016D-01 0.13402516D-01 0.63282610D+04 0.24149801D+04 0.56776455D+04 0.12790850D+01  1  2 12  6  6  2       21 0.194510144142D+01
-.346592932200D-01 0.000000000000D+00 -.102999231064D-03 0.762406766754D-03 0.000000000000D+00  6 3 3 -11 11 3 3 4 0.68238016D-01 0.13394732D-01 0.56963919D+04 0.26875863D+04 0.59855870D+04 0.12733958D+01  1  2  5  6  6  2       21 -.404859811859D+01
0.210792663623D-02 0.000000000000D+00 0.000000000000D+00 0.762406766754D-03 0.711481617290D-04  6 3 3 -11 11 3 3 4 0.68300873D-01 0.13390181D-01 0.63282610D+04 0.24149801D+04 0.56776455D+04 0.12790850D+01  1  2 11  6  6  2       21 0.249814531217D+00
0.164064747857D-01 0.000000000000D+00 0.000000000000D+00 0.769234433441D-03 0.000000000000D+00  6 3 -2 -11 11 3 -2 4 0.68238016D-01 0.13402516D-01 0.63282610D+04 0.24149801D+04 0.56776455D+04 0.12790850D+01  1  2 12  7  6  2       21 0.228087265799D+01
0.164064747857D-01 0.000000000000D+00 0.000000000000D+00 0.769234433441D-03 0.000000000000D+00  6 3 -4 -11 11 3 -4 4 0.68238016D-01 0.13402516D-01 0.63282610D+04 0.24149801D+04 0.56776455D+04 0.12790850D+01  1  2 12  7  6  2       21 0.128407202761D+01
0.164064747857D-01 0.000000000000D+00 0.000000000000D+00 0.769234433441D-03 0.000000000000D+00  6 3 -2 -11 11 3 -2 4 0.68238016D-01 0.13402516D-01 0.63282610D+04 0.24149801D+04 0.56776455D+04 0.12790850D+01  1  2 12  7  6  2       21 0.228087265799D+01
0.164064747857D-01 0.000000000000D+00 0.000000000000D+00 0.769234433441D-03 0.000000000000D+00  6 3 -4 -11 11 3 -4 4 0.68238016D-01 0.13402516D-01 0.63282610D+04 0.24149801D+04 0.56776455D+04 0.12790850D+01  1  2 12  7  6  2       21 0.128407202761D+01
-.346592932200D-01 0.000000000000D+00 -.102999231064D-03 0.762406830017D-03 0.000000000000D+00  6 3 -2 -11 11 3 -2 4 0.68238016D-01 0.13394732D-01 0.56963919D+04 0.26875837D+04 0.59855850D+04 0.12733958D+01  1  2  5  7  6  2       21 -.474564953117D+01
-.346592932200D-01 0.000000000000D+00 -.102999231064D-03 0.762406830017D-03 0.000000000000D+00  6 3 -4 -11 11 3 -4 4 0.68238016D-01 0.13394732D-01 0.56963919D+04 0.26875837D+04 0.59855850D+04 0.12733958D+01  1  2  5  7  6  2       21 -.267715419920D+01
0.219939737147D-02 0.000000000000D+00 0.000000000000D+00 0.762406830017D-03 0.148199066258D-03  6 3 -2 -11 11 3 -2 4 0.68300873D-01 0.13390181D-01 0.63282610D+04 0.24149801D+04 0.56776455D+04 0.12790850D+01  1  2 11  7  6  2       21 0.305625075232D+00
0.219939737147D-02 0.000000000000D+00 0.000000000000D+00 0.762406830017D-03 0.148199066258D-03  6 3 -4 -11 11 3 -4 4 0.68300873D-01 0.13390181D-01 0.63282610D+04 0.24149801D+04 0.56776455D+04 0.12790850D+01  1  2 11  7  6  2       21 0.172090399071D+00
0.164064747857D-01 0.000000000000D+00 0.000000000000D+00 0.769234433441D-03 0.000000000000D+00  6 3 2 -11 11 3 2 4 0.68238016D-01 0.13402516D-01 0.63282610D+04 0.24149801D+04 0.56776455D+04 0.12790850D+01  1  2 12  8  6  2       21 0.351083284879D+01
0.164064747857D-01 0.000000000000D+00 0.000000000000D+00 0.769234433441D-03 0.000000000000D+00  6 3 4 -11 11 3 4 4 0.68238016D-01 0.13402516D-01 0.63282610D+04 0.24149801D+04 0.56776455D+04 0.12790850D+01  1  2 12  8  6  2       21 0.128119882416D+01
0.164064747857D-01 0.000000000000D+00 0.000000000000D+00 0.769234433441D-03 0.000000000000D+00  6 3 2 -11 11 3 2 4 0.68238016D-01 0.13402516D-01 0.63282610D+04 0.24149801D+04 0.56776455D+04 0.12790850D+01  1  2 12  8  6  2       21 0.351083284879D+01
0.164064747857D-01 0.000000000000D+00 0.000000000000D+00 0.769234433441D-03 0.000000000000D+00  6 3 4 -11 11 3 4 4 0.68238016D-01 0.13402516D-01 0.63282610D+04 0.24149801D+04 0.56776455D+04 0.12790850D+01  1  2 12  8  6  2       21 0.128119882416D+01
-.346592932200D-01 0.000000000000D+00 -.102999231064D-03 0.762406830017D-03 0.000000000000D+00  6 3 2 -11 11 3 2 4 0.68238016D-01 0.13394732D-01 0.56963919D+04 0.26875837D+04 0.59855850D+04 0.12733958D+01  1  2  5  8  6  2       21 -.730271542056D+01
-.346592932200D-01 0.000000000000D+00 -.102999231064D-03 0.762406830017D-03 0.000000000000D+00  6 3 4 -11 11 3 4 4 0.68238016D-01 0.13394732D-01 0.56963919D+04 0.26875837D+04 0.59855850D+04 0.12733958D+01  1  2  5  8  6  2       21 -.267118006866D+01
0.219067966734D-02 0.000000000000D+00 0.000000000000D+00 0.762406830017D-03 0.147611652802D-03  6 3 2 -11 11 3 2 4 0.68300873D-01 0.13390181D-01 0.63282610D+04 0.24149801D+04 0.56776455D+04 0.12790850D+01  1  2 11  8  6  2       21 0.468415334604D+00
0.219067966734D-02 0.000000000000D+00 0.000000000000D+00 0.762406830017D-03 0.147611652802D-03  6 3 4 -11 11 3 4 4 0.68300873D-01 0.13390181D-01 0.63282610D+04 0.24149801D+04 0.56776455D+04 0.12790850D+01  1  2 11  8  6  2       21 0.171025104803D+00
0.164064747857D-01 0.000000000000D+00 0.000000000000D+00 0.769234433441D-03 0.000000000000D+00  6 3 -1 -11 11 3 -1 4 0.68238016D-01 0.13402516D-01 0.63282610D+04 0.24149801D+04 0.56776455D+04 0.12790850D+01  1  2 12  9  6  2       21 0.240308349747D+01
0.164064747857D-01 0.000000000000D+00 0.000000000000D+00 0.769234433441D-03 0.000000000000D+00  6 3 -5 -11 11 3 -5 4 0.68238016D-01 0.13402516D-01 0.63282610D+04 0.24149801D+04 0.56776455D+04 0.12790850D+01  1  2 12  9  6  2       21 0.846023894044D+00
0.164064747857D-01 0.000000000000D+00 0.000000000000D+00 0.769234433441D-03 0.000000000000D+00  6 3 -1 -11 11 3 -1 4 0.68238016D-01 0.13402516D-01 0.63282610D+04 0.24149801D+04 0.56776455D+04 0.12790850D+01  1  2 12  9  6  2       21 0.240308349747D+01
0.164064747857D-01 0.000000000000D+00 0.000000000000D+00 0.769234433441D-03 0.000000000000D+00  6 3 -5 -11 11 3 -5 4 0.68238016D-01 0.13402516D-01 0.63282610D+04 0.24149801D+04 0.56776455D+04 0.12790850D+01  1  2 12  9  6  2       21 0.846023894044D+00
-.346592932200D-01 0.000000000000D+00 -.102999231064D-03 0.762406830017D-03 0.000000000000D+00  6 3 -1 -11 11 3 -1 4 0.68238016D-01 0.13394732D-01 0.56963919D+04 0.26875837D+04 0.59855850D+04 0.12733958D+01  1  2  5  9  6  2       21 -.499960219174D+01
-.346592932200D-01 0.000000000000D+00 -.102999231064D-03 0.762406830017D-03 0.000000000000D+00  6 3 -5 -11 11 3 -5 4 0.68238016D-01 0.13394732D-01 0.56963919D+04 0.26875837D+04 0.59855850D+04 0.12733958D+01  1  2  5  9  6  2       21 -.176853493878D+01
0.220732447895D-02 0.000000000000D+00 0.000000000000D+00 0.762406830017D-03 0.148733207992D-03  6 3 -1 -11 11 3 -1 4 0.68300873D-01 0.13390181D-01 0.63282610D+04 0.24149801D+04 0.56776455D+04 0.12790850D+01  1  2 11  9  6  2       21 0.323144505442D+00
0.220732447895D-02 0.000000000000D+00 0.000000000000D+00 0.762406830017D-03 0.148733207992D-03  6 3 -5 -11 11 3 -5 4 0.68300873D-01 0.13390181D-01 0.63282610D+04 0.24149801D+04 0.56776455D+04 0.12790850D+01  1  2 11  9  6  2       21 0.113794326547D+00
0.164064747857D-01 0.000000000000D+00 0.000000000000D+00 0.769234433441D-03 0.000000000000D+00  6 3 1 -11 11 3 1 4 0.68238016D-01 0.13402516D-01 0.63282610D+04 0.24149801D+04 0.56776455D+04 0.12790850D+01  1  2 12 10  6  2       21 0.304206762167D+01
0.164064747857D-01 0.000000000000D+00 0.000000000000D+00 0.769234433441D-03 0.000000000000D+00  6 3 5 -11 11 3 5 4 0.68238016D-01 0.13402516D-01 0.63282610D+04 0.24149801D+04 0.56776455D+04 0.12790850D+01  1  2 12 10  6  2       21 0.845034185225D+00
0.164064747857D-01 0.000000000000D+00 0.000000000000D+00 0.769234433441D-03 0.000000000000D+00  6 3 1 -11 11 3 1 4 0.68238016D-01 0.13402516D-01 0.63282610D+04 0.24149801D+04 0.56776455D+04 0.12790850D+01  1  2 12 10  6  2       21 0.304206762167D+01
0.164064747857D-01 0.000000000000D+00 0.000000000000D+00 0.769234433441D-03 0.000000000000D+00  6 3 5 -11 11 3 5 4 0.68238016D-01 0.13402516D-01 0.63282610D+04 0.24149801D+04 0.56776455D+04 0.12790850D+01  1  2 12 10  6  2       21 0.845034185225D+00
-.346592932200D-01 0.000000000000D+00 -.102999231064D-03 0.762406830017D-03 0.000000000000D+00  6 3 1 -11 11 3 1 4 0.68238016D-01 0.13394732D-01 0.56963919D+04 0.26875837D+04 0.59855850D+04 0.12733958D+01  1  2  5 10  6  2       21 -.632792614571D+01
-.346592932200D-01 0.000000000000D+00 -.102999231064D-03 0.762406830017D-03 0.000000000000D+00  6 3 5 -11 11 3 5 4 0.68238016D-01 0.13394732D-01 0.56963919D+04 0.26875837D+04 0.59855850D+04 0.12733958D+01  1  2  5 10  6  2       21 -.176647175056D+01
0.222265183325D-02 0.000000000000D+00 0.000000000000D+00 0.762406830017D-03 0.149765990710D-03  6 3 1 -11 11 3 1 4 0.68300873D-01 0.13390181D-01 0.63282610D+04 0.24149801D+04 0.56776455D+04 0.12790850D+01  1  2 11 10  6  2       21 0.411835430002D+00
0.222265183325D-02 0.000000000000D+00 0.000000000000D+00 0.762406830017D-03 0.149765990710D-03  6 3 5 -11 11 3 5 4 0.68300873D-01 0.13390181D-01 0.63282610D+04 0.24149801D+04 0.56776455D+04 0.12790850D+01  1  2 11 10  6  2       21 0.114450580327D+00
  </mgrwgt>
  </event>
  <event npLO=' -1 ' npNLO=' 1 '>
  7     66 -.15498555E+02 0.78290808E+01 0.75467711E-02 0.17631553E+00
        1 -1    0    0  502    0 0.00000000E+00 0.00000000E+00 0.19715160E+03 0.19715160E+03 0.00000000E+00 0.0000E+00 0.9000E+01
       21 -1    0    0  503  502 0.00000000E+00 0.00000000E+00 -.16436245E+02 0.16436245E+02 0.00000000E+00 0.0000E+00 0.9000E+01
       23  2    1    2    0    0 0.65205231E+01 -.72846263E+01 0.15985471E+03 0.18637337E+03 0.95320095E+02 0.0000E+00 0.0000E+00
      -13  1    3    3    0    0 0.46553825E+02 0.16148075E+02 0.76982164E+02 0.91401710E+02 0.00000000E+00 0.0000E+00 0.9000E+01
       13  1    3    3    0    0 -.40033302E+02 -.23432702E+02 0.82872549E+02 0.94971660E+02 0.00000000E+00 0.0000E+00 0.9000E+01
        1  1    1    2  501    0 -.10466257E+02 0.27706596E+01 0.96582994E+01 0.14508681E+02 0.00000000E+00 0.0000E+00 0.9000E+01
       21  1    1    2  503  501 0.39457334E+01 0.45139667E+01 0.11202339E+02 0.12705791E+02 0.00000000E+00 0.0000E+00 0.9000E+01
#aMCatNLO 2  0  0  2  5 0.91431978D+01 0.00000000D+00  -5  6  0 0.00000000D+00 0.00000000D+00 0.00000000D+00 0.00000000D+00 0.00000000D+00
  <mgrwgt>
 -.4194376950D+03    3    2    0
 0.538121552017576D+02 0.000000000000000D+00 0.000000000000000D+00 0.538121552017576D+02
 0.538121552017576D+02 0.000000000000000D+00 0.000000000000000D+00 -.538121552017576D+02
 0.517361291670806D+02 0.484040435711405D+02 0.182647477685566D+02 -.273159490018177D+00
 0.442873096669324D+02 -.383673332738203D+02 -.215268135042268D+02 0.509017046321711D+01
 0.116008715695023D+02 -.100367102973202D+02 0.326206573567023D+01 -.481701097319894D+01
 0.000000000000000D+00 0.000000000000000D+00 0.000000000000000D+00 0.000000000000000D+00
 0.573744195919847D+02 0.000000000000000D+00 0.000000000000000D+00 0.573744195919847D+02
 0.564786871024021D+02 0.000000000000000D+00 0.000000000000000D+00 -.564786871024021D+02
 0.492756896104011D+02 0.465538250793816D+02 0.161480754565968D+02 -.273159490018177D+00
 0.466654755997331D+02 -.400333019417845D+02 -.234327017913556D+02 0.509017046321711D+01
 0.118500074233344D+02 -.104662565671100D+02 0.277065961254514D+01 -.481701097319894D+01
 0.606193406091826D+01 0.394573342951288D+01 0.451396672221358D+01 0.895732489582613D+00
-.436291403163D-03 0.000000000000D+00 0.000000000000D+00 0.249688846207D-03 0.000000000000D+00  6 1 21 -13 13 1 21 4 0.28447822D-01 0.26960452D-02 0.31631700D+04 0.11361516D+03 0.28394645D+04 0.14850887D+01  1  2 13  2  6  2       21 -.235477388326D+03
-.436291403163D-03 0.000000000000D+00 0.000000000000D+00 0.249688846207D-03 0.000000000000D+00  6 1 21 -13 13 1 21 4 0.28447822D-01 0.26960452D-02 0.31631700D+04 0.11361516D+03 0.28394645D+04 0.14850887D+01  1  2 13  2  6  2       21 -.235477388326D+03
0.936712464036D-04 0.000000000000D+00 0.000000000000D+00 0.250261585213D-03 0.936047385627D-04  6 1 21 -13 13 1 21 4 0.30331015D-01 0.25286530D-02 0.31631700D+04 0.11361516D+03 0.28394645D+04 0.14850887D+01  1  2  1  2  6  2       21 0.515170817001D+02
  </mgrwgt>
  </event>
  <event npLO=' -1 ' npNLO=' 1 '>
  6     66 0.15498555E+02 0.65201854E+02 0.75467711E-02 0.11349889E+00
        3 -1    0    0  502    0 0.00000000E+00 0.00000000E+00 0.36368418E+02 0.36368418E+02 0.00000000E+00 0.0000E+00 0.9000E+01
       21 -1    0    0  501  502 0.00000000E+00 0.00000000E+00 -.23950785E+03 0.23950785E+03 0.00000000E+00 0.0000E+00 0.9000E+01
       23  2    1    2    0    0 -.44500940E+01 0.65049815E+02 -.16864448E+03 0.20211189E+03 0.90315972E+02 0.0000E+00 0.0000E+00
      -13  1    3    3    0    0 -.41891296E+02 0.41483060E+02 -.13235506E+03 0.14489164E+03 0.00000000E+00 0.0000E+00 0.9000E+01
       13  1    3    3    0    0 0.37441202E+02 0.23566755E+02 -.36289420E+02 0.57220254E+02 0.00000000E+00 0.0000E+00 0.9000E+01
        3  1    1    2  501    0 0.44500940E+01 -.65049815E+02 -.34494957E+02 0.73764380E+02 0.00000000E+00 0.0000E+00 0.9000E+01
#aMCatNLO 1  0  0  2  1 0.34561204D+02 0.00000000D+00  -5  6  0 0.00000000D+00 0.00000000D+00 0.00000000D+00 0.00000000D+00 0.00000000D+00
  <mgrwgt>
 0.6155640155D+02    3    2    0
 0.933301761686751D+02 0.000000000000000D+00 0.000000000000000D+00 0.933301761686751D+02
 0.933301761686751D+02 0.000000000000000D+00 0.000000000000000D+00 -.933301761686751D+02
 0.701039755142270D+02 -.418912959603079D+02 0.414830603026719D+02 -.379320763153050D+02
 0.450759794565970D+02 0.374412019211786D+02 0.235667546455422D+02 0.863761530434783D+01
 0.714803973665262D+02 0.445009403912930D+01 -.650498149482141D+02 0.292944610109572D+02
 0.000000000000000D+00 0.000000000000000D+00 -.000000000000000D+00 0.000000000000000D+00
 0.297602311487053D+03 0.000000000000000D+00 0.000000000000000D+00 0.297602311487053D+03
 0.142164737556687D+03 0.000000000000000D+00 0.000000000000000D+00 -.142164737556687D+03
 0.120939471021119D+03 -.104472239582446D+03 0.476766650879235D+02 -.379320763153050D+02
 0.302348682023363D+02 0.127712956932928D+02 0.260083229636443D+02 0.863761530434783D+01
 0.808533963853661D+02 -.454505580451061D+02 -.601111722936351D+02 0.292944610109572D+02
 0.207739313434919D+03 0.137151501934259D+03 -.135738157579327D+02 0.155437573930366D+03
0.473187391608D-02 0.000000000000D+00 0.000000000000D+00 0.269555392210D-03 0.000000000000D+00  6 3 21 -13 13 3 21 2 0.55951413D-02 0.36847362D-01 0.70894538D+04 0.42512860D+04 0.77963815D+04 0.12498571D+01  1  2  2  2  6  2       21 0.690620042431D+02
-.577924317756D-03 0.229731219136D-03 0.104243376277D-04 0.269555392210D-03 0.000000000000D+00  6 3 21 -13 13 3 21 4 0.55951413D-02 0.36847362D-01 0.70894538D+04 0.42512860D+04 0.77963815D+04 0.12498571D+01  1  2  3  2  6  2       21 -.158323665366D+02
0.365215742604D-03 0.000000000000D+00 0.000000000000D+00 0.269555392210D-03 0.000000000000D+00  6 3 21 -13 13 3 21 4 0.55951413D-02 0.36847362D-01 0.70894538D+04 0.42512860D+04 0.77963815D+04 0.12498571D+01  1  2 15  2  6  2       21 0.832676384236D+01
  </mgrwgt>
  </event>
  <event npLO=' -1 ' npNLO=' 1 '>
  7     66 0.15498555E+02 0.41613006E+02 0.75467711E-02 0.13152303E+00
        1 -1    0    0  502    0 0.00000000E+00 0.00000000E+00 0.18088974E+03 0.18088974E+03 0.00000000E+00 0.0000E+00 0.9000E+01
       21 -1    0    0  501  503 0.00000000E+00 0.00000000E+00 -.13516250E+03 0.13516250E+03 0.00000000E+00 0.0000E+00 0.9000E+01
       23  2    1    2    0    0 0.22248958E+02 -.80027826E+01 0.83087483E+02 0.12349026E+03 0.88245412E+02 0.0000E+00 0.0000E+00
      -13  1    3    3    0    0 0.31413001E+02 -.59730282E+01 -.71503783E+01 0.32765556E+02 0.00000000E+00 0.0000E+00 0.9000E+01
       13  1    3    3    0    0 -.91640431E+01 -.20297543E+01 0.90237861E+02 0.90724700E+02 0.00000000E+00 0.0000E+00 0.9000E+01
        1  1    1    2  501    0 -.54223483E+02 0.25052131E+02 0.62426622E+02 0.86399528E+02 0.00000000E+00 0.0000E+00 0.9000E+01
       21  1    1    2  502  503 0.31974525E+02 -.17049348E+02 -.99786862E+02 0.10616246E+03 0.00000000E+00 0.0000E+00 0.9000E+01
#aMCatNLO 2  0  0  2  5 0.36652739D+02 0.00000000D+00  -5  6  0 0.00000000D+00 0.00000000D+00 0.00000000D+00 0.00000000D+00 0.00000000D+00
  <mgrwgt>
 0.1162363883D+03    3    2    0
 0.734273725066635D+02 0.000000000000000D+00 0.000000000000000D+00 0.734273725066635D+02
 0.734273725066635D+02 0.000000000000000D+00 0.000000000000000D+00 -.734273725066635D+02
 0.614477134980438D+02 0.436179343777770D+02 -.124809013000040D+02 -.414430259210542D+02
 0.384931118016477D+02 -.843792780995738D+00 -.646625003563178D+01 0.379367273284555D+02
 0.469139197136355D+02 -.427741415967812D+02 0.189471513356358D+02 0.350629859259872D+01
 0.000000000000000D+00 0.000000000000000D+00 -.000000000000000D+00 -.000000000000000D+00
 0.769863569035268D+02 0.000000000000000D+00 0.000000000000000D+00 0.769863569035268D+02
 0.317582378231355D+03 0.000000000000000D+00 0.000000000000000D+00 -.317582378231355D+03
 0.523448002911724D+02 0.314130013484361D+02 -.597302823638974D+01 -.414430259210542D+02
 0.390806201273152D+02 -.916404313404455D+01 -.202975431501103D+01 0.379367273284555D+02
 0.598338492234478D+02 -.542234832759887D+02 0.250521305379883D+02 0.350629859259872D+01
 0.243309465492947D+03 0.319745250615972D+02 -.170493479865875D+02 -.240596021327829D+03
-.899611865759D-02 0.000000000000D+00 0.000000000000D+00 0.105304644453D-03 0.000000000000D+00  6 1 21 -13 13 1 21 4 0.26542682D-01 0.21802116D-01 0.47148158D+04 0.21404897D+04 0.53219566D+04 0.12855999D+01  1  2 13  2  6  2       21 -.102628470163D+03
-.899611865759D-02 0.000000000000D+00 0.000000000000D+00 0.105304644453D-03 0.000000000000D+00  6 1 21 -13 13 1 21 4 0.26542682D-01 0.21802116D-01 0.47148158D+04 0.21404897D+04 0.53219566D+04 0.12855999D+01  1  2 13  2  6  2       21 -.102628470163D+03
0.274602184535D-01 0.000000000000D+00 0.000000000000D+00 0.105106714332D-03 0.273000615434D-04  6 1 21 -13 13 1 21 4 0.27829191D-01 0.20794231D-01 0.47148158D+04 0.21404897D+04 0.53219566D+04 0.12855999D+01  1  2  1  2  6  2       21 0.321493328603D+03
  </mgrwgt>
  </event>
  <event npLO=' -1 ' npNLO=' 1 '>
  7     66 0.15498555E+02 0.24294007E+02 0.75467711E-02 0.15768028E+00
        1 -1    0    0  502    0 0.00000000E+00 0.00000000E+00 0.52204430E+02 0.52204430E+02 0.00000000E+00 0.0000E+00 0.9000E+01
       21 -1    0    0  501  502 -.00000000E+00 -.00000000E+00 -.70619007E+03 0.70619007E+03 0.00000000E+00 0.0000E+00 0.9000E+01
       23  2    1    2    0    0 -.65206594E+01 0.42425729E+01 0.39437668E+01 0.91463440E+02 0.91046632E+02 0.0000E+00 0.0000E+00
      -11  1    3    3    0    0 0.99417014E+01 -.41477686E+02 0.42971229E+01 0.42868417E+02 0.00000000E+00 0.0000E+00 0.9000E+01
       11  1    3    3    0    0 -.16462361E+02 0.45720259E+02 -.35335617E+00 0.48595023E+02 0.00000000E+00 0.0000E+00 0.9000E+01
        1  1    1    2  503    0 0.38358919E+02 -.14554384E+02 -.10124887E+03 0.10924546E+03 0.00000000E+00 0.0000E+00 0.9000E+01
       21  1    1    2  501  503 -.31838260E+02 0.10311811E+02 -.55668054E+03 0.55768561E+03 0.00000000E+00 0.0000E+00 0.9000E+01
#aMCatNLO 2  0  0  5  2 0.25143602D+02 0.00000000D+00  -5  6  0 0.00000000D+00 0.00000000D+00 0.00000000D+00 0.00000000D+00 0.00000000D+00
  <mgrwgt>
 0.1063001584D+03    1    2    0
 0.192005859662906D+03 0.000000000000000D+00 0.000000000000000D+00 0.192005859662906D+03
 0.192005859662906D+03 -.000000000000000D+00 -.000000000000000D+00 -.192005859662906D+03
 0.995238567478817D+02 0.960014116923914D+01 -.412554550528565D+02 0.900601064838661D+02
 0.103275279139196D+03 -.168166576335629D+02 0.459507773070473D+02 0.909478387439334D+02
 0.181212583438735D+03 0.721651646432394D+01 -.469532225419096D+01 -.181007945227799D+03
 0.000000000000000D+00 0.000000000000000D+00 0.000000000000000D+00 -.000000000000000D+00
 0.192005859662906D+03 0.000000000000000D+00 0.000000000000000D+00 0.192005859662906D+03
 0.192005859662906D+03 -.000000000000000D+00 -.000000000000000D+00 -.192005859662906D+03
 0.919800790442998D+02 0.994170135482555D+01 -.414776862565761D+02 0.814929387000379D+02
 0.953697682311236D+02 -.164623607938402D+02 0.457202591831903D+02 0.820612044133741D+02
 0.433211999597707D+02 0.383589189978387D+02 -.145543843820497D+02 -.139100537213643D+02
 0.153340672090619D+03 -.318382595588238D+02 0.103118114554354D+02 -.149644089392048D+03
0.400242301007D-01 0.000000000000D+00 0.000000000000D+00 0.268088284674D+00 0.101153243652D-02  6 1 21 -11 11 1 21 4 0.80314507D-02 0.10864463D+00 0.68674396D+04 0.30474854D+03 0.39798204D+04 0.14076466D+01  1  2  1  3  6  5        1 0.106300158430D+03
  </mgrwgt>
  </event>
  <event npLO=' -1 ' npNLO=' 1 '>
  6     66 0.15498555E+02 0.10666622E+02 0.75467711E-02 0.17482408E+00
        3 -1    0    0  502    0 0.00000000E+00 0.00000000E+00 0.11597675E+02 0.11597675E+02 0.00000000E+00 0.0000E+00 0.9000E+01
       21 -1    0    0  501  502 0.00000000E+00 0.00000000E+00 -.21881189E+03 0.21881189E+03 0.00000000E+00 0.0000E+00 0.9000E+01
       23  2    1    2    0    0 -.10025766E+02 -.36415445E+01 -.14884409E+03 0.17107283E+03 0.83651494E+02 0.0000E+00 0.0000E+00
      -13  1    3    3    0    0 0.28227352E+02 0.18466138E+01 -.15529509E+02 0.32270095E+02 0.00000000E+00 0.0000E+00 0.9000E+01
       13  1    3    3    0    0 -.38253118E+02 -.54881583E+01 -.13331459E+03 0.13880274E+03 0.00000000E+00 0.0000E+00 0.9000E+01
        3  1    1    2  501    0 0.10025766E+02 0.36415445E+01 -.58370119E+02 0.59336731E+02 0.00000000E+00 0.0000E+00 0.9000E+01
#aMCatNLO 1  0  0  2  5 0.42091647D+01 0.00000000D+00  -5  6  0 0.00000000D+00 0.00000000D+00 0.00000000D+00 0.00000000D+00 0.00000000D+00
  <mgrwgt>
 0.9111795075D+04   49    2    0
 0.503756793138123D+02 0.000000000000000D+00 0.000000000000000D+00 0.503756793138123D+02
 0.503756793138123D+02 0.000000000000000D+00 0.000000000000000D+00 -.503756793138123D+02
 0.418595206526832D+02 0.282273522295203D+02 0.184661380605215D+01 0.308549197508972D+02
 0.432430972854144D+02 -.382531180573795D+02 -.548815826566394D+01 -.194047556175033D+02
 0.156487406895271D+02 0.100257658278592D+02 0.364154445961180D+01 -.114501641333939D+02
 0.000000000000000D+00 0.000000000000000D+00 -.000000000000000D+00 -.000000000000000D+00
 0.515232227479163D+02 0.000000000000000D+00 0.000000000000000D+00 0.515232227479163D+02
 0.532212623717987D+02 0.000000000000000D+00 0.000000000000000D+00 -.532212623717987D+02
 0.412295660642534D+02 0.271947217142255D+02 0.288065199185325D+01 0.308549197508972D+02
 0.440843297647061D+02 -.393384226329533D+02 -.440137421488705D+01 -.194047556175033D+02
 0.154998131964099D+02 0.963865184549591D+01 0.402918615147766D+01 -.114501641333939D+02
 0.393077609434560D+01 0.250504907323193D+01 -.250846392844386D+01 -.169803962388242D+01
0.955963584211D-02 0.000000000000D+00 0.000000000000D+00 0.112362869902D-03 0.000000000000D+00  6 3 21 -13 13 3 21 2 0.17842576D-02 0.33663367D-01 0.15054057D+04 0.11377683D+03 0.22560333D+04 0.14849673D+01  1  2  2  2  6  2       21 0.114222232067D+04
0.871990864138D-03 0.464117775633D-03 0.210599169343D-04 0.112362869902D-03 0.000000000000D+00  6 3 21 -13 13 3 21 4 0.17842576D-02 0.33663367D-01 0.15054057D+04 0.11377683D+03 0.22560333D+04 0.14849673D+01  1  2  3  2  6  2       21 -.838147846905D+02
0.770032951325D-03 0.000000000000D+00 0.000000000000D+00 0.112362869902D-03 0.000000000000D+00  6 3 21 -13 13 3 21 4 0.17842576D-02 0.33663367D-01 0.15054057D+04 0.11377683D+03 0.22560333D+04 0.14849673D+01  1  2 15  2  6  2       21 0.202886131140D+03
0.371569570246D-02 0.000000000000D+00 0.000000000000D+00 0.111943835093D-03 0.000000000000D+00  6 3 21 -13 13 3 21 4 0.17842576D-02 0.36375077D-01 0.16371227D+04 0.11754159D+03 0.22654171D+04 0.14821957D+01  1  2 12  2  6  2       21 0.840434030056D+03
0.371569570246D-02 0.000000000000D+00 0.000000000000D+00 0.111943835093D-03 0.000000000000D+00  6 3 21 -13 13 3 21 4 0.17842576D-02 0.36375077D-01 0.16371227D+04 0.11754159D+03 0.22654171D+04 0.14821957D+01  1  2 12  2  6  2       21 0.840434030056D+03
-.504071343045D-02 0.000000000000D+00 0.000000000000D+00 0.112362869902D-03 0.000000000000D+00  6 3 21 -13 13 3 21 4 0.17842576D-02 0.33663367D-01 0.15054057D+04 0.11377683D+03 0.22560333D+04 0.14849673D+01  1  2  4  2  6  2       21 -.132811309481D+04
-.190313306438D+00 0.000000000000D+00 -.334534745826D-01 0.112362869902D-03 0.000000000000D+00  6 3 21 -13 13 3 21 4 0.17842576D-02 0.36284474D-01 0.15054057D+04 0.11377683D+03 0.22560333D+04 0.14849673D+01  1  2  5  2  6  2       21 -.466584895721D+05
0.190560494731D+00 0.000000000000D+00 0.330803018185D-01 0.112362869902D-03 0.000000000000D+00  6 3 21 -13 13 3 21 4 0.17842576D-02 0.33663367D-01 0.15054057D+04 0.11377683D+03 0.22560333D+04 0.14849673D+01  1  2  6  2  6  2       21 0.537343287181D+05
0.389723060359D-02 0.000000000000D+00 0.000000000000D+00 0.112362869902D-03 0.141326664042D-03  6 3 21 -13 13 3 21 4 0.18249025D-02 0.35564918D-01 0.16371227D+04 0.11754159D+03 0.22654171D+04 0.14821957D+01  1  2 11  2  6  2       21 0.891295033149D+03
0.797347796600D-04 0.000000000000D+00 0.000000000000D+00 0.111943835093D-03 0.000000000000D+00  6 3 -3 -13 13 3 -3 4 0.17842576D-02 0.36375077D-01 0.16371227D+04 0.11754159D+03 0.22654171D+04 0.14821957D+01  1  2 12  5  6  2       21 0.109802489636D+01
0.797347796600D-04 0.000000000000D+00 0.000000000000D+00 0.111943835093D-03 0.000000000000D+00  6 3 -3 -13 13 3 -3 4 0.17842576D-02 0.36375077D-01 0.16371227D+04 0.11754159D+03 0.22654171D+04 0.14821957D+01  1  2 12  5  6  2       21 0.109802489636D+01
-.304449860327D-02 0.000000000000D+00 -.620165563500D-03 0.112362869902D-03 0.000000000000D+00  6 3 -3 -13 13 3 -3 4 0.17842576D-02 0.36284474D-01 0.15054057D+04 0.11377683D+03 0.22560333D+04 0.14849673D+01  1  2  5  5  6  2       21 -.459237863095D+02
0.169188330278D-02 0.000000000000D+00 0.000000000000D+00 0.112362869902D-03 0.576389997142D-04  6 3 -3 -13 13 3 -3 4 0.18249025D-02 0.35564918D-01 0.16371227D+04 0.11754159D+03 0.22654171D+04 0.14821957D+01  1  2 11  5  6  2       21 0.235887666945D+02
0.797347976776D-04 0.000000000000D+00 0.000000000000D+00 0.111943835093D-03 0.000000000000D+00  6 3 3 -13 13 3 3 4 0.17842576D-02 0.36375077D-01 0.16371227D+04 0.11754159D+03 0.22654171D+04 0.14821957D+01  1  2 12  6  6  2       21 0.110933373033D+01
0.797347976776D-04 0.000000000000D+00 0.000000000000D+00 0.111943835093D-03 0.000000000000D+00  6 3 3 -13 13 3 3 4 0.17842576D-02 0.36375077D-01 0.16371227D+04 0.11754159D+03 0.22654171D+04 0.14821957D+01  1  2 12  6  6  2       21 0.110933373033D+01
-.304449929124D-02 0.000000000000D+00 -.620165703638D-03 0.112362856982D-03 0.000000000000D+00  6 3 3 -13 13 3 3 4 0.17842576D-02 0.36284474D-01 0.15054057D+04 0.11377694D+03 0.22560336D+04 0.14849672D+01  1  2  5  6  6  2       21 -.463909410303D+02
0.394667818827D-03 0.000000000000D+00 0.000000000000D+00 0.112362856982D-03 0.113675982324D-05  6 3 3 -13 13 3 3 4 0.18249025D-02 0.35564918D-01 0.16371227D+04 0.11754159D+03 0.22654171D+04 0.14821957D+01  1  2 11  6  6  2       21 0.555358841940D+01
0.797347796600D-04 0.000000000000D+00 0.000000000000D+00 0.111943835093D-03 0.000000000000D+00  6 3 -2 -13 13 3 -2 4 0.17842576D-02 0.36375077D-01 0.16371227D+04 0.11754159D+03 0.22654171D+04 0.14821957D+01  1  2 12  7  6  2       21 0.149900505744D+01
0.797347796600D-04 0.000000000000D+00 0.000000000000D+00 0.111943835093D-03 0.000000000000D+00  6 3 -4 -13 13 3 -4 4 0.17842576D-02 0.36375077D-01 0.16371227D+04 0.11754159D+03 0.22654171D+04 0.14821957D+01  1  2 12  7  6  2       21 0.643908474826D+00
0.797347796600D-04 0.000000000000D+00 0.000000000000D+00 0.111943835093D-03 0.000000000000D+00  6 3 -2 -13 13 3 -2 4 0.17842576D-02 0.36375077D-01 0.16371227D+04 0.11754159D+03 0.22654171D+04 0.14821957D+01  1  2 12  7  6  2       21 0.149900505744D+01
0.797347796600D-04 0.000000000000D+00 0.000000000000D+00 0.111943835093D-03 0.000000000000D+00  6 3 -4 -13 13 3 -4 4 0.17842576D-02 0.36375077D-01 0.16371227D+04 0.11754159D+03 0.22654171D+04 0.14821957D+01  1  2 12  7  6  2       21 0.643908474826D+00
-.304449860327D-02 0.000000000000D+00 -.620165563500D-03 0.112362869902D-03 0.000000000000D+00  6 3 -2 -13 13 3 -2 4 0.17842576D-02 0.36284474D-01 0.15054057D+04 0.11377683D+03 0.22560333D+04 0.14849673D+01  1  2  5  7  6  2       21 -.626624991240D+02
-.304449860327D-02 0.000000000000D+00 -.620165563500D-03 0.112362869902D-03 0.000000000000D+00  6 3 -4 -13 13 3 -4 4 0.17842576D-02 0.36284474D-01 0.15054057D+04 0.11377683D+03 0.22560333D+04 0.14849673D+01  1  2  5  7  6  2       21 -.269297825259D+02
0.471547074934D-03 0.000000000000D+00 0.000000000000D+00 0.112362869902D-03 0.164107267003D-05  6 3 -2 -13 13 3 -2 4 0.18249025D-02 0.35564918D-01 0.16371227D+04 0.11754159D+03 0.22654171D+04 0.14821957D+01  1  2 11  7  6  2       21 0.893138839960D+01
0.471547074934D-03 0.000000000000D+00 0.000000000000D+00 0.112362869902D-03 0.164107267003D-05  6 3 -4 -13 13 3 -4 4 0.18249025D-02 0.35564918D-01 0.16371227D+04 0.11754159D+03 0.22654171D+04 0.14821957D+01  1  2 11  7  6  2       21 0.386002978956D+01
0.797347796600D-04 0.000000000000D+00 0.000000000000D+00 0.111943835093D-03 0.000000000000D+00  6 3 2 -13 13 3 2 4 0.17842576D-02 0.36375077D-01 0.16371227D+04 0.11754159D+03 0.22654171D+04 0.14821957D+01  1  2 12  8  6  2       21 0.384158261028D+01
0.797347796600D-04 0.000000000000D+00 0.000000000000D+00 0.111943835093D-03 0.000000000000D+00  6 3 4 -13 13 3 4 4 0.17842576D-02 0.36375077D-01 0.16371227D+04 0.11754159D+03 0.22654171D+04 0.14821957D+01  1  2 12  8  6  2       21 0.640349480843D+00
0.797347796600D-04 0.000000000000D+00 0.000000000000D+00 0.111943835093D-03 0.000000000000D+00  6 3 2 -13 13 3 2 4 0.17842576D-02 0.36375077D-01 0.16371227D+04 0.11754159D+03 0.22654171D+04 0.14821957D+01  1  2 12  8  6  2       21 0.384158261028D+01
0.797347796600D-04 0.000000000000D+00 0.000000000000D+00 0.111943835093D-03 0.000000000000D+00  6 3 4 -13 13 3 4 4 0.17842576D-02 0.36375077D-01 0.16371227D+04 0.11754159D+03 0.22654171D+04 0.14821957D+01  1  2 12  8  6  2       21 0.640349480843D+00
-.304449860327D-02 0.000000000000D+00 -.620165563500D-03 0.112362869902D-03 0.000000000000D+00  6 3 2 -13 13 3 2 4 0.17842576D-02 0.36284474D-01 0.15054057D+04 0.11377683D+03 0.22560333D+04 0.14849673D+01  1  2  5  8  6  2       21 -.160313384795D+03
-.304449860327D-02 0.000000000000D+00 -.620165563500D-03 0.112362869902D-03 0.000000000000D+00  6 3 4 -13 13 3 4 4 0.17842576D-02 0.36284474D-01 0.15054057D+04 0.11377683D+03 0.22560333D+04 0.14849673D+01  1  2  5  8  6  2       21 -.267811864795D+02
0.462750126982D-03 0.000000000000D+00 0.000000000000D+00 0.112362869902D-03 0.161045763363D-05  6 3 2 -13 13 3 2 4 0.18249025D-02 0.35564918D-01 0.16371227D+04 0.11754159D+03 0.22654171D+04 0.14821957D+01  1  2 11  8  6  2       21 0.221211046217D+02
0.462750126982D-03 0.000000000000D+00 0.000000000000D+00 0.112362869902D-03 0.161045763363D-05  6 3 4 -13 13 3 4 4 0.18249025D-02 0.35564918D-01 0.16371227D+04 0.11754159D+03 0.22654171D+04 0.14821957D+01  1  2 11  8  6  2       21 0.376743533667D+01
0.797347796600D-04 0.000000000000D+00 0.000000000000D+00 0.111943835093D-03 0.000000000000D+00  6 3 -1 -13 13 3 -1 4 0.17842576D-02 0.36375077D-01 0.16371227D+04 0.11754159D+03 0.22654171D+04 0.14821957D+01  1  2 12  9  6  2       21 0.171052073220D+01
0.797347796600D-04 0.000000000000D+00 0.000000000000D+00 0.111943835093D-03 0.000000000000D+00  6 3 -5 -13 13 3 -5 4 0.17842576D-02 0.36375077D-01 0.16371227D+04 0.11754159D+03 0.22654171D+04 0.14821957D+01  1  2 12  9  6  2       21 0.391055976854D+00
0.797347796600D-04 0.000000000000D+00 0.000000000000D+00 0.111943835093D-03 0.000000000000D+00  6 3 -1 -13 13 3 -1 4 0.17842576D-02 0.36375077D-01 0.16371227D+04 0.11754159D+03 0.22654171D+04 0.14821957D+01  1  2 12  9  6  2       21 0.171052073220D+01
0.797347796600D-04 0.000000000000D+00 0.000000000000D+00 0.111943835093D-03 0.000000000000D+00  6 3 -5 -13 13 3 -5 4 0.17842576D-02 0.36375077D-01 0.16371227D+04 0.11754159D+03 0.22654171D+04 0.14821957D+01  1  2 12  9  6  2       21 0.391055976854D+00
-.304449860327D-02 0.000000000000D+00 -.620165563500D-03 0.112362869902D-03 0.000000000000D+00  6 3 -1 -13 13 3 -1 4 0.17842576D-02 0.36284474D-01 0.15054057D+04 0.11377683D+03 0.22560333D+04 0.14849673D+01  1  2  5  9  6  2       21 -.714848118716D+02
-.304449860327D-02 0.000000000000D+00 -.620165563500D-03 0.112362869902D-03 0.000000000000D+00  6 3 -5 -13 13 3 -5 4 0.17842576D-02 0.36284474D-01 0.15054057D+04 0.11377683D+03 0.22560333D+04 0.14849673D+01  1  2  5  9  6  2       21 -.163521294693D+02
0.436547226302D-03 0.000000000000D+00 0.000000000000D+00 0.112362869902D-03 0.151926660209D-05  6 3 -1 -13 13 3 -1 4 0.18249025D-02 0.35564918D-01 0.16371227D+04 0.11754159D+03 0.22654171D+04 0.14821957D+01  1  2 11  9  6  2       21 0.941143268459D+01
0.436547226302D-03 0.000000000000D+00 0.000000000000D+00 0.112362869902D-03 0.151926660209D-05  6 3 -5 -13 13 3 -5 4 0.18249025D-02 0.35564918D-01 0.16371227D+04 0.11754159D+03 0.22654171D+04 0.14821957D+01  1  2 11  9  6  2       21 0.217219430608D+01
0.797347796600D-04 0.000000000000D+00 0.000000000000D+00 0.111943835093D-03 0.000000000000D+00  6 3 1 -13 13 3 1 4 0.17842576D-02 0.36375077D-01 0.16371227D+04 0.11754159D+03 0.22654171D+04 0.14821957D+01  1  2 12 10  6  2       21 0.292857064042D+01
0.797347796600D-04 0.000000000000D+00 0.000000000000D+00 0.111943835093D-03 0.000000000000D+00  6 3 5 -13 13 3 5 4 0.17842576D-02 0.36375077D-01 0.16371227D+04 0.11754159D+03 0.22654171D+04 0.14821957D+01  1  2 12 10  6  2       21 0.389894304573D+00
0.797347796600D-04 0.000000000000D+00 0.000000000000D+00 0.111943835093D-03 0.000000000000D+00  6 3 1 -13 13 3 1 4 0.17842576D-02 0.36375077D-01 0.16371227D+04 0.11754159D+03 0.22654171D+04 0.14821957D+01  1  2 12 10  6  2       21 0.292857064042D+01
0.797347796600D-04 0.000000000000D+00 0.000000000000D+00 0.111943835093D-03 0.000000000000D+00  6 3 5 -13 13 3 5 4 0.17842576D-02 0.36375077D-01 0.16371227D+04 0.11754159D+03 0.22654171D+04 0.14821957D+01  1  2 12 10  6  2       21 0.389894304573D+00
-.304449860327D-02 0.000000000000D+00 -.620165563500D-03 0.112362869902D-03 0.000000000000D+00  6 3 1 -13 13 3 1 4 0.17842576D-02 0.36284474D-01 0.15054057D+04 0.11377683D+03 0.22560333D+04 0.14849673D+01  1  2  5 10  6  2       21 -.122264166182D+03
-.304449860327D-02 0.000000000000D+00 -.620165563500D-03 0.112362869902D-03 0.000000000000D+00  6 3 5 -13 13 3 5 4 0.17842576D-02 0.36284474D-01 0.15054057D+04 0.11377683D+03 0.22560333D+04 0.14849673D+01  1  2  5 10  6  2       21 -.163036413309D+02
0.435949155975D-03 0.000000000000D+00 0.000000000000D+00 0.112362869902D-03 0.151718520467D-05  6 3 1 -13 13 3 1 4 0.18249025D-02 0.35564918D-01 0.16371227D+04 0.11754159D+03 0.22654171D+04 0.14821957D+01  1  2 11 10  6  2       21 0.159452707095D+02
0.435949155975D-03 0.000000000000D+00 0.000000000000D+00 0.112362869902D-03 0.151718520467D-05  6 3 5 -13 13 3 5 4 0.18249025D-02 0.35564918D-01 0.16371227D+04 0.11754159D+03 0.22654171D+04 0.14821957D+01  1  2 11 10  6  2       21 0.216288931542D+01
  </mgrwgt>
  </event>
  <event npLO=' -1 ' npNLO=' 1 '>
  6     66 -.15498555E+02 0.14489589E+02 0.75467711E-02 0.14808721E+00
        1 -1    0    0  502    0 0.00000000E+00 0.00000000E+00 0.58271433E+03 0.58271433E+03 0.00000000E+00 0.0000E+00 0.9000E+01
       21 -1    0    0  501  502 0.00000000E+00 0.00000000E+00 -.89216934E+02 0.89216934E+02 0.00000000E+00 0.0000E+00 0.9000E+01
       23  2    1    2    0    0 0.13164112E+02 0.60542836E+01 0.57863146E+03 0.58557295E+03 0.88720684E+02 0.0000E+00 0.0000E+00
      -11  1    3    3    0    0 -.33573543E+02 0.17903398E+02 0.17607229E+03 0.18013652E+03 0.00000000E+00 0.0000E+00 0.9000E+01
       11  1    3    3    0    0 0.46737655E+02 -.11849114E+02 0.40255917E+03 0.40543642E+03 0.00000000E+00 0.0000E+00 0.9000E+01
        1  1    1    2  501    0 -.13164112E+02 -.60542836E+01 -.85134070E+02 0.86358312E+02 0.00000000E+00 0.0000E+00 0.9000E+01
#aMCatNLO 1  0  0  1  2 0.25978243D+01 0.00000000D+00  -5  6  0 0.00000000D+00 0.00000000D+00 0.00000000D+00 0.00000000D+00 0.00000000D+00
  <mgrwgt>
 -.5792389376D+04    7    2    0
 0.228008740051081D+03 0.000000000000000D+00 0.000000000000000D+00 0.228008740051081D+03
 0.228008740051081D+03 0.000000000000000D+00 0.000000000000000D+00 -.228008740051081D+03
 0.748834088223589D+02 -.335735434253849D+02 0.179033976195437D+02 0.644965925642344D+02
 0.161755877308099D+03 0.467376552302386D+02 -.118491139800683D+02 0.154402570979824D+03
 0.219378193971703D+03 -.131641118048537D+02 -.605428363947539D+01 -.218899163544058D+03
 0.000000000000000D+00 0.000000000000000D+00 0.000000000000000D+00 0.000000000000000D+00
 0.441562233595198D+03 0.000000000000000D+00 0.000000000000000D+00 0.441562233595198D+03
 0.228871128142531D+03 0.000000000000000D+00 0.000000000000000D+00 -.228871128142531D+03
 0.749881121639297D+02 -.353289394476964D+02 0.146721692675026D+02 0.644965925642344D+02
 0.161366491228578D+03 0.429530287934316D+02 -.188156287089733D+02 0.154402570979824D+03
 0.220212270580038D+03 -.183128908913808D+02 -.155318492436601D+02 -.218899163544058D+03
 0.213866487765183D+03 0.106888015456456D+02 0.196753086851309D+02 0.212691105452667D+03
0.184998986040D-01 0.000000000000D+00 0.000000000000D+00 0.434595370841D-01 0.000000000000D+00  6 1 21 -11 11 1 21 2 0.89648358D-01 0.13725682D-01 0.25378781D+04 0.20994819D+03 0.27240928D+04 0.14353863D+01  1  2  2  1  6  1        1 0.764474691648D+02
0.712312939185D-02 0.898165153083D-03 0.407553524348D-04 0.434595370841D-01 0.000000000000D+00  6 1 21 -11 11 1 21 4 0.89648358D-01 0.13725682D-01 0.25378781D+04 0.20994819D+03 0.27240928D+04 0.14353863D+01  1  2  3  1  6  1        1 0.416127019877D+02
0.160571953340D-02 0.000000000000D+00 0.000000000000D+00 0.434595370841D-01 0.000000000000D+00  6 1 21 -11 11 1 21 4 0.89648358D-01 0.13725682D-01 0.25378781D+04 0.20994819D+03 0.27240928D+04 0.14353863D+01  1  2 15  1  6  1        1 0.136710246485D+02
-.137672429628D+01 0.000000000000D+00 0.000000000000D+00 0.434595370841D-01 0.000000000000D+00  6 1 21 -11 11 1 21 4 0.89648358D-01 0.13725682D-01 0.25378781D+04 0.20994819D+03 0.27240928D+04 0.14353863D+01  1  2  4  1  6  1        1 -.117213693906D+05
-.162589622350D+01 0.000000000000D+00 -.177805495355D-01 0.434595370841D-01 0.000000000000D+00  6 1 21 -11 11 1 21 4 0.17380300D+00 0.13725682D-01 0.25378781D+04 0.20994819D+03 0.27240928D+04 0.14353863D+01  1  2  5  1  6  1        1 -.511512928653D+04
0.133709035374D+01 0.000000000000D+00 0.144879833794D-01 0.434595370841D-01 0.000000000000D+00  6 1 21 -11 11 1 21 4 0.89648358D-01 0.13725682D-01 0.25378781D+04 0.20994819D+03 0.27240928D+04 0.14353863D+01  1  2  6  1  6  1        1 0.113926618253D+05
-.115669438878D+00 0.000000000000D+00 -.127628792973D-02 0.434595370841D-01 0.000000000000D+00  6 21 21 -11 11 1 -1 4 0.17380300D+00 0.13725682D-01 0.25378781D+04 0.20994819D+03 0.27240928D+04 0.14353863D+01  1  2  5  4  6  1        1 -.480283719651D+03
  </mgrwgt>
  </event>
  <event npLO=' -1 ' npNLO=' 1 '>
  6     66 0.15498555E+02 0.24039606E+02 0.75467711E-02 0.11222286E+00
        1 -1    0    0  502    0 0.00000000E+00 0.00000000E+00 0.13281671E+03 0.13281671E+03 0.00000000E+00 0.0000E+00 0.9000E+01
       21 -1    0    0  501  502 0.00000000E+00 0.00000000E+00 -.47610160E+02 0.47610160E+02 0.00000000E+00 0.0000E+00 0.9000E+01
       23  2    1    2    0    0 -.22877893E+02 0.73827257E+01 0.11098510E+03 0.14517866E+03 0.90450248E+02 0.0000E+00 0.0000E+00
      -13  1    3    3    0    0 -.19985983E+02 -.22218219E+02 -.40391775E+00 0.29887320E+02 0.00000000E+00 0.0000E+00 0.9000E+01
       13  1    3    3    0    0 -.28919103E+01 0.29600944E+02 0.11138902E+03 0.11529134E+03 0.00000000E+00 0.0000E+00 0.9000E+01
        1  1    1    2  501    0 0.22877893E+02 -.73827257E+01 -.25778553E+02 0.35248211E+02 0.00000000E+00 0.0000E+00 0.9000E+01
#aMCatNLO 1  0  0  2  2 0.17634784D+03 0.00000000D+00  -5  6  0 0.00000000D+00 0.00000000D+00 0.00000000D+00 0.00000000D+00 0.00000000D+00
  <mgrwgt>
 0.2316470115D+03    3    2    0
 0.795199644165793D+02 0.000000000000000D+00 0.000000000000000D+00 0.795199644165793D+02
 0.795199644165793D+02 0.000000000000000D+00 0.000000000000000D+00 -.795199644165793D+02
 0.341228269424589D+02 -.199859827985609D+02 -.222182186237235D+02 -.164705364608763D+02
 0.711178710942119D+02 -.289191032679897D+01 0.296009443495390D+02 0.646000970374673D+02
 0.537992307964877D+02 0.228778931253599D+02 -.738272572581554D+01 -.481295605765910D+02
 0.000000000000000D+00 -.000000000000000D+00 -.000000000000000D+00 0.000000000000000D+00
 0.222005267086228D+03 0.000000000000000D+00 0.000000000000000D+00 0.222005267086228D+03
 0.187334808949847D+03 0.000000000000000D+00 0.000000000000000D+00 -.187334808949847D+03
 0.197990877470056D+02 0.713338335664247D+00 -.109643263688856D+02 -.164705364608763D+02
 0.117208642389713D+03 0.694020911592872D+02 0.689060451361669D+02 0.646000970374673D+02
 0.970897445119633D+02 0.808005276147106D+02 0.241088910007688D+02 -.481295605765910D+02
 0.175242601387393D+03 -.150915957109662D+03 -.820506097680500D+02 0.346704581363810D+02
0.334228712263D-02 0.000000000000D+00 0.000000000000D+00 0.387551082402D-02 0.000000000000D+00  6 1 21 -13 13 1 21 2 0.20433340D-01 0.73246401D-02 0.17500028D+04 0.57790263D+03 0.34592004D+04 0.13636798D+01  1  2  2  2  6  2       21 0.221935036233D+03
-.199315056336D-04 0.162267150183D-03 0.736307222741D-05 0.387551082402D-02 0.000000000000D+00  6 1 21 -13 13 1 21 4 0.20433340D-01 0.73246401D-02 0.17500028D+04 0.57790263D+03 0.34592004D+04 0.13636798D+01  1  2  3  2  6  2       21 -.240422317854D+02
0.273351198371D-03 0.000000000000D+00 0.000000000000D+00 0.387551082402D-02 0.000000000000D+00  6 1 21 -13 13 1 21 4 0.20433340D-01 0.73246401D-02 0.17500028D+04 0.57790263D+03 0.34592004D+04 0.13636798D+01  1  2 15  2  6  2       21 0.337542071018D+02
  </mgrwgt>
  </event>
  <event npLO=' -1 ' npNLO=' 1 '>
  6     66 0.15498555E+02 0.12562201E+02 0.75467711E-02 0.17685684E+00
        3 -1    0    0  502    0 0.00000000E+00 0.00000000E+00 0.20374517E+01 0.20374517E+01 0.00000000E+00 0.0000E+00 0.9000E+01
       21 -1    0    0  501  502 -.00000000E+00 -.00000000E+00 -.17376177E+04 0.17376177E+04 0.00000000E+00 0.0000E+00 0.9000E+01
       23  2    1    2    0    0 0.12465709E+02 -.15540260E+01 -.10973579E+04 0.11013091E+04 0.92356638E+02 0.0000E+00 0.0000E+00
      -11  1    3    3    0    0 -.30363076E+02 -.71112863E+01 -.16315394E+03 0.16610748E+03 0.00000000E+00 0.0000E+00 0.9000E+01
       11  1    3    3    0    0 0.42828785E+02 0.55572603E+01 -.93420392E+03 0.93520166E+03 0.00000000E+00 0.0000E+00 0.9000E+01
