<LesHouchesEvents version="3.0">
  <!--
  <scalesfunctionalform>
    muR  FxFx merging scale
    muF1 FxFx merging scale
    muF2 FxFx merging scale
    QES  H_T/2 := sum_i mT(i)/2, i=final state
  </scalesfunctionalform>
PYTHIA8   
  -->
  <header>
       85
  </header>
  <init>
   2212   2212 0.65000000D+04 0.65000000D+04 -1 -1 306000 306000 -4   1
 0.88862059D+03 0.36678470D+01 0.12487420D+02     66
  </init>
  <event npLO=' -1 ' npNLO=' 0 '>
  5     66 -.12487420E+02 0.71935213E+02 0.75467711E-02 0.11815410E+00
        2 -1    0    0  501    0 0.00000000E+00 0.00000000E+00 0.10174584E+02 0.10174584E+02 0.00000000E+00 0.0000E+00 0.9000E+01
       -2 -1    0    0    0  501 0.00000000E+00 0.00000000E+00 -.20081943E+03 0.20081943E+03 0.00000000E+00 0.0000E+00 0.9000E+01
       23  2    1    2    0    0 0.00000000E+00 0.00000000E+00 -.19064484E+03 0.21099401E+03 0.90404738E+02 0.0000E+00 0.0000E+00
      -11  1    3    3    0    0 -.35019281E+02 0.56405403E+01 -.16071647E+03 0.16458417E+03 0.00000000E+00 0.0000E+00 0.9000E+01
       11  1    3    3    0    0 0.35019281E+02 -.56405403E+01 -.29928372E+02 0.46409839E+02 0.00000000E+00 0.0000E+00 0.9000E+01
#aMCatNLO 1  0  0  1  2 0.16261161D+01 0.00000000D+00  -5  5  0 0.00000000D+00 0.00000000D+00 0.00000000D+00 0.00000000D+00 0.00000000D+00
  <mgrwgt>
 -.5181653459D+03   11    2    0
 0.452023689128066D+02 0.000000000000000D+00 0.000000000000000D+00 0.452023689128066D+02
 0.452023689128066D+02 0.000000000000000D+00 0.000000000000000D+00 -.452023689128066D+02
 0.452023689128066D+02 -.350192807288064D+02 0.564054033162376D+01 -.280194296396954D+02
 0.452023689128066D+02 0.350192807288064D+02 -.564054033162376D+01 0.280194296396954D+02
 0.000000000000000D+00 -.000000000000000D+00 0.000000000000000D+00 0.000000000000000D+00
 0.462297414784309D+02 0.000000000000000D+00 0.000000000000000D+00 0.462297414784309D+02
 0.456553510619953D+02 0.000000000000000D+00 0.000000000000000D+00 -.456553510619953D+02
 0.450510330438185D+02 -.349255023242566D+02 0.497156196579456D+01 -.280194296396954D+02
 0.453638344213244D+02 0.351133841517320D+02 -.631183725110098D+01 0.280194296396954D+02
 0.147022507528331D+01 -.187881827475418D+00 0.134027528530642D+01 0.574390416435649D+00
0.373699864997D-01 0.000000000000D+00 0.000000000000D+00 0.667498191680D+00 0.000000000000D+00  5 2 -2 -11 11 21 0 0.15653206D-02 0.30895296D-01 0.12581657D+04 0.81730166D+04 0.81730166D+04 0.12185210D+01  1  2  2  1  5  1        2 0.300076585238D+03
-.192773687355D-02 0.000000000000D+00 -.143510587902D-03 0.667498191680D+00 0.000000000000D+00  5 2 -2 -11 11 21 2 0.15653206D-02 0.30895296D-01 0.12581657D+04 0.81730166D+04 0.81730166D+04 0.12185210D+01  1  2  3  1  5  1        2 -.261855205266D+02
0.205003437251D-02 0.000000000000D+00 0.000000000000D+00 0.667498191680D+00 0.000000000000D+00  5 2 -2 -11 11 21 2 0.15653206D-02 0.30895296D-01 0.12581657D+04 0.81730166D+04 0.81730166D+04 0.12185210D+01  1  2 15  1  5  1        2 0.244419771379D+02
0.177326260275D-04 0.000000000000D+00 0.000000000000D+00 0.667498191680D+00 0.000000000000D+00  5 2 -2 -11 11 21 2 0.16169406D-02 0.30895296D-01 0.13070800D+04 0.81748483D+04 0.81748483D+04 0.12185107D+01  1  2 12  1  5  1        2 0.202436155548D+00
-.334992120908D+00 0.000000000000D+00 0.000000000000D+00 0.667498191680D+00 0.000000000000D+00  5 2 -2 -11 11 21 2 0.15653206D-02 0.30895296D-01 0.12581657D+04 0.81730166D+04 0.81730166D+04 0.12185210D+01  1  2  4  1  5  1        2 -.399401584207D+04
-.135117560579D+01 0.000000000000D+00 -.184913166633D+00 0.667498191680D+00 0.000000000000D+00  5 2 -2 -11 11 21 2 0.16168797D-02 0.30895296D-01 0.12581657D+04 0.81730166D+04 0.81730166D+04 0.12185210D+01  1  2  5  1  5  1        2 -.193760588202D+05
0.135655282180D+01 0.000000000000D+00 0.184816106850D+00 0.667498191680D+00 0.000000000000D+00  5 2 -2 -11 11 21 2 0.15653206D-02 0.30895296D-01 0.12581657D+04 0.81730166D+04 0.81730166D+04 0.12185210D+01  1  2  6  1  5  1        2 0.202969644264D+05
0.335040267558D+00 0.000000000000D+00 0.000000000000D+00 0.667498191680D+00 0.288639652548D+01  5 2 -2 -11 11 21 2 0.16008977D-02 0.31204904D-01 0.13070800D+04 0.81748483D+04 0.81748483D+04 0.12185107D+01  1  2 11  1  5  1        2 0.381038426114D+04
0.570317561995D-06 0.000000000000D+00 0.000000000000D+00 0.667498191680D+00 0.000000000000D+00  5 21 -2 -11 11 -2 2 0.16169406D-02 0.30895296D-01 0.13070800D+04 0.81748483D+04 0.81748483D+04 0.12185107D+01  1  2 12  3  5  1        2 0.111075803255D+00
-.775553487627D-02 0.000000000000D+00 -.107094003888D-02 0.667498191680D+00 0.000000000000D+00  5 21 -2 -11 11 -2 2 0.16168797D-02 0.30895296D-01 0.12581657D+04 0.81730166D+04 0.81730166D+04 0.12185210D+01  1  2  5  3  5  1        2 -.190087115418D+04
0.178439688041D-02 0.000000000000D+00 0.000000000000D+00 0.667498191680D+00 0.118661654789D-01  5 21 -2 -11 11 -2 2 0.16008977D-02 0.31204904D-01 0.13070800D+04 0.81748483D+04 0.81748483D+04 0.12185107D+01  1  2 11  3  5  1        2 0.346785229244D+03
  </mgrwgt>
  </event>
  <event npLO=' -1 ' npNLO=' 0 '>
  5     66 0.12487420E+02 0.90171156E+02 0.75467711E-02 0.91238291E-01
        2 -1    0    0  501    0 0.00000000E+00 0.00000000E+00 0.16013504E+02 0.16013504E+02 0.00000000E+00 0.0000E+00 0.9000E+01
       -2 -1    0    0    0  501 0.00000000E+00 0.00000000E+00 -.12693720E+03 0.12693720E+03 0.00000000E+00 0.0000E+00 0.9000E+01
       23  2    1    2    0    0 0.00000000E+00 0.00000000E+00 -.11092369E+03 0.14295070E+03 0.90171156E+02 0.0000E+00 0.0000E+00
      -13  1    3    3    0    0 -.66716086E+01 -.30571174E+02 -.40033601E+01 0.31545744E+02 0.00000000E+00 0.0000E+00 0.9000E+01
       13  1    3    3    0    0 0.66716086E+01 0.30571174E+02 -.10692033E+03 0.11140496E+03 0.00000000E+00 0.0000E+00 0.9000E+01
#aMCatNLO 1  0  0  2  2 0.70934088D+03 0.00000000D+00  -5  5  0 0.00000000D+00 0.00000000D+00 0.00000000D+00 0.00000000D+00 0.00000000D+00
  <mgrwgt>
 0.3452348173D+03    5    2    0
 0.450855780904970D+02 0.000000000000000D+00 0.000000000000000D+00 0.450855780904970D+02
 0.450855780904970D+02 0.000000000000000D+00 0.000000000000000D+00 -.450855780904970D+02
 0.450855780904970D+02 -.667160855284342D+01 -.305711741980083D+02 0.324592405830291D+02
 0.450855780904970D+02 0.667160855284342D+01 0.305711741980083D+02 -.324592405830291D+02
 0.000000000000000D+00 0.000000000000000D+00 0.000000000000000D+00 -.000000000000000D+00
 0.398901358951165D+03 0.000000000000000D+00 0.000000000000000D+00 0.398901358951165D+03
 0.162879374969594D+04 0.000000000000000D+00 0.000000000000000D+00 -.162879374969594D+04
 0.522833559004613D+03 -.300340836614485D+03 -.426727910950191D+03 0.324592405830291D+02
 0.120025169388226D+03 -.787066479446778D+02 -.846032065394565D+02 -.324592405830291D+02
 0.138483638025427D+04 0.379047484559163D+03 0.511331117489648D+03 -.122989239074478D+04
0.370274981165D-01 0.000000000000D+00 0.000000000000D+00 0.512471251185D+00 0.000000000000D+00  5 2 -2 -13 13 21 0 0.24636160D-02 0.19528800D-01 0.97910705D+03 0.81308374D+04 0.81308374D+04 0.12187596D+01  1  2  2  2  5  2       -2 0.347191733905D+03
-.172343055182D-02 0.000000000000D+00 -.142195342331D-03 0.512471251185D+00 0.000000000000D+00  5 2 -2 -13 13 21 2 0.24636160D-02 0.19528800D-01 0.97910705D+03 0.81308374D+04 0.81308374D+04 0.12187596D+01  1  2  3  2  5  2       -2 -.281957145037D+02
0.188546074686D-02 0.000000000000D+00 0.000000000000D+00 0.512471251185D+00 0.000000000000D+00  5 2 -2 -13 13 21 2 0.24636160D-02 0.19528800D-01 0.97910705D+03 0.81308374D+04 0.81308374D+04 0.12187596D+01  1  2 15  2  5  2       -2 0.262602329563D+02
0.377603878500D+00 0.000000000000D+00 -.103943761081D+00 0.512471251185D+00 0.000000000000D+00  5 2 -2 -13 13 21 2 0.24636160D-02 0.92717755D+00 0.97910705D+03 0.81308374D+04 0.81308374D+04 0.12187596D+01  1  2  5  2  5  2       -2 -.209899697506D-01
0.993881371848D-01 0.000000000000D+00 -.365681332786D-01 0.512471251185D+00 0.000000000000D+00  5 2 21 -13 13 2 2 0.24636160D-02 0.92717755D+00 0.97910705D+03 0.81308374D+04 0.81308374D+04 0.12187596D+01  1  2  5  4  5  2       -2 -.445070120822D-03
  </mgrwgt>
  </event>
  <event npLO=' -1 ' npNLO=' 0 '>
  5     66 0.12487420E+02 0.88567443E+02 0.75467711E-02 0.11484172E+00
        2 -1    0    0  501    0 0.00000000E+00 0.00000000E+00 0.38745616E+03 0.38745616E+03 0.00000000E+00 0.0000E+00 0.9000E+01
       -2 -1    0    0    0  501 0.00000000E+00 0.00000000E+00 -.50613417E+01 0.50613417E+01 0.00000000E+00 0.0000E+00 0.9000E+01
       23  2    1    2    0    0 0.00000000E+00 0.00000000E+00 0.38239482E+03 0.39251750E+03 0.88567443E+02 0.0000E+00 0.0000E+00
      -13  1    3    3    0    0 0.29797769E+02 -.32706143E+02 0.19942819E+03 0.20427727E+03 0.00000000E+00 0.0000E+00 0.9000E+01
       13  1    3    3    0    0 -.29797769E+02 0.32706143E+02 0.18296662E+03 0.18824023E+03 0.00000000E+00 0.0000E+00 0.9000E+01
#aMCatNLO 1  0  0  2  2 0.10929681D+03 0.00000000D+00  -5  5  0 0.00000000D+00 0.00000000D+00 0.00000000D+00 0.00000000D+00 0.00000000D+00
  <mgrwgt>
 0.3709442066D+03    3    2    0
 0.442837216681405D+02 0.000000000000000D+00 0.000000000000000D+00 0.442837216681405D+02
 0.442837216681405D+02 0.000000000000000D+00 0.000000000000000D+00 -.442837216681405D+02
 0.442837216681405D+02 0.297977692732387D+02 -.327061431273654D+02 0.185718950364642D+01
 0.442837216681405D+02 -.297977692732387D+02 0.327061431273654D+02 -.185718950364642D+01
 0.000000000000000D+00 -.000000000000000D+00 -.000000000000000D+00 0.000000000000000D+00
 0.108144085580791D+03 0.000000000000000D+00 0.000000000000000D+00 0.108144085580791D+03
 0.740230633703064D+02 0.000000000000000D+00 0.000000000000000D+00 -.740230633703064D+02
 0.757120088977445D+02 0.687263188119641D+02 -.317104437218395D+02 0.185718950364642D+01
 0.337062321214140D+02 -.449657092808086D+01 0.333532874070747D+02 -.185718950364642D+01
 0.727489079319388D+02 -.642297478838833D+02 -.164284368523517D+01 0.341210222104845D+02
0.167373227642D-01 0.000000000000D+00 0.000000000000D+00 0.105790191336D+00 0.000000000000D+00  5 2 -2 -13 13 21 0 0.59608640D-01 0.77866795D-03 0.19575989D+04 0.78441920D+04 0.78441920D+04 0.12204186D+01  1  2  2  2  5  2       -2 0.375091912177D+03
-.929850388790D-03 0.000000000000D+00 -.642757264527D-04 0.105790191336D+00 0.000000000000D+00  5 2 -2 -13 13 21 2 0.59608640D-01 0.77866795D-03 0.19575989D+04 0.78441920D+04 0.78441920D+04 0.12204186D+01  1  2  3  2  5  2       -2 -.340151816361D+02
0.894806553311D-03 0.000000000000D+00 0.000000000000D+00 0.105790191336D+00 0.000000000000D+00  5 2 -2 -13 13 21 2 0.59608640D-01 0.77866795D-03 0.19575989D+04 0.78441920D+04 0.78441920D+04 0.12204186D+01  1  2 15  2  5  2       -2 0.298674760200D+02
  </mgrwgt>
  </event>
  <event npLO=' -1 ' npNLO=' 0 '>
  5     66 0.12487420E+02 0.52304805E+02 0.75467711E-02 0.11775724E+00
        2 -1    0    0  501    0 0.00000000E+00 0.00000000E+00 0.20395526E+04 0.20395526E+04 0.00000000E+00 0.0000E+00 0.9000E+01
       -2 -1    0    0    0  501 0.00000000E+00 0.00000000E+00 -.10062198E+01 0.10062198E+01 0.00000000E+00 0.0000E+00 0.9000E+01
       23  2    1    2    0    0 0.00000000E+00 0.00000000E+00 0.20385463E+04 0.20405588E+04 0.90603269E+02 0.0000E+00 0.0000E+00
      -13  1    3    3    0    0 0.31479228E+02 -.25674114E+02 0.14709126E+04 0.14714734E+04 0.00000000E+00 0.0000E+00 0.9000E+01
       13  1    3    3    0    0 -.31479228E+02 0.25674114E+02 0.56763378E+03 0.56908541E+03 0.00000000E+00 0.0000E+00 0.9000E+01
#aMCatNLO 1  0  0  1  2 0.26659648D+02 0.00000000D+00  -5  5  0 0.00000000D+00 0.00000000D+00 0.00000000D+00 0.00000000D+00 0.00000000D+00
  <mgrwgt>
 0.2003040368D+03    6    2    0
 0.453016345875576D+02 0.000000000000000D+00 0.000000000000000D+00 0.453016345875576D+02
 0.453016345875576D+02 0.000000000000000D+00 0.000000000000000D+00 -.453016345875576D+02
 0.453016345875576D+02 0.314792279775227D+02 -.256741139049580D+02 0.200533333248861D+02
 0.453016345875576D+02 -.314792279775227D+02 0.256741139049580D+02 -.200533333248861D+02
 0.000000000000000D+00 0.000000000000000D+00 -.000000000000000D+00 -.000000000000000D+00
 0.549092745283815D+02 0.000000000000000D+00 0.000000000000000D+00 0.549092745283815D+02
 0.559669764472793D+02 0.000000000000000D+00 0.000000000000000D+00 -.559669764472793D+02
 0.385683673826966D+02 0.234374322932567D+02 -.231531758648069D+02 0.200533333248861D+02
 0.538832464745723D+02 -.409894763348885D+02 0.286553817457060D+02 -.200533333248861D+02
 0.184246371183919D+02 0.175520440416318D+02 -.550220588089905D+01 -.105770191889780D+01
0.184739589752D-01 0.000000000000D+00 0.000000000000D+00 0.561898846659D+00 0.000000000000D+00  5 2 -2 -13 13 21 0 0.31377732D+00 0.15480304D-03 0.16501019D+04 0.82089524D+04 0.82089524D+04 0.12183188D+01  1  2  2  1  5  1        2 0.357128884939D+03
-.101149234907D-02 0.000000000000D+00 -.709448667697D-04 0.561898846659D+00 0.000000000000D+00  5 2 -2 -13 13 21 2 0.31377732D+00 0.15480304D-03 0.16501019D+04 0.82089524D+04 0.82089524D+04 0.12183188D+01  1  2  3  1  5  1        2 -.322894897636D+02
0.995210318266D-03 0.000000000000D+00 0.000000000000D+00 0.561898846659D+00 0.000000000000D+00  5 2 -2 -13 13 21 2 0.31377732D+00 0.15480304D-03 0.16501019D+04 0.82089524D+04 0.82089524D+04 0.12183188D+01  1  2 15  1  5  1        2 0.285562888973D+02
0.772579382768D-02 0.000000000000D+00 0.000000000000D+00 0.561898846659D+00 0.000000000000D+00  5 2 -2 -13 13 21 2 0.46986311D+00 0.15480304D-03 0.25680610D+04 0.85473009D+04 0.85473009D+04 0.12164625D+01  1  2 12  1  5  1        2 0.597847442991D+02
-.742945680609D-02 0.000000000000D+00 0.000000000000D+00 0.561898846659D+00 0.000000000000D+00  5 2 -2 -13 13 21 2 0.31377732D+00 0.15480304D-03 0.16501019D+04 0.82089524D+04 0.82089524D+04 0.12183188D+01  1  2  4  1  5  1        2 -.213178773382D+03
0.370281091922D-03 0.000000000000D+00 0.000000000000D+00 0.561898846659D+00 0.000000000000D+00  5 21 -2 -13 13 -2 2 0.46986311D+00 0.15480304D-03 0.25680610D+04 0.85473009D+04 0.85473009D+04 0.12164625D+01  1  2 12  3  5  1        2 0.302381846491D+00
  </mgrwgt>
  </event>
  <event npLO=' -1 ' npNLO=' 0 '>
  6     66 0.12487420E+02 0.89561162E+02 0.75467711E-02 0.10810250E+00
        2 -1    0    0  501    0 0.00000000E+00 0.00000000E+00 0.64856097E+03 0.64856097E+03 0.00000000E+00 0.0000E+00 0.9000E+01
       -2 -1    0    0    0  502 0.00000000E+00 0.00000000E+00 -.37384426E+02 0.37384426E+02 0.00000000E+00 0.0000E+00 0.9000E+01
       23  2    1    2    0    0 0.18627837E+02 -.14017200E+03 0.28647296E+03 0.33178780E+03 0.89561162E+02 0.0000E+00 0.0000E+00
      -13  1    3    3    0    0 -.59848836E+01 -.12287465E+03 0.16022446E+03 0.20200464E+03 0.00000000E+00 0.0000E+00 0.9000E+01
       13  1    3    3    0    0 0.24612720E+02 -.17297354E+02 0.12624850E+03 0.12978316E+03 0.00000000E+00 0.0000E+00 0.9000E+01
       21  1    1    2  501  502 -.18627837E+02 0.14017200E+03 0.32470359E+03 0.35415760E+03 0.00000000E+00 0.0000E+00 0.9000E+01
#aMCatNLO 2  0  0  2  2 0.21577697D+03 0.00000000D+00  -5  5  0 0.00000000D+00 0.00000000D+00 0.00000000D+00 0.00000000D+00 0.00000000D+00
  <mgrwgt>
 0.9494246820D+01    1    2    0
 0.447805807932539D+02 0.000000000000000D+00 0.000000000000000D+00 0.447805807932539D+02
 0.447805807932539D+02 0.000000000000000D+00 0.000000000000000D+00 -.447805807932539D+02
 0.447805807932539D+02 -.183803279603931D+02 -.296005726547881D+02 -.281295229031376D+02
 0.447805807932539D+02 0.183803279603931D+02 0.296005726547881D+02 0.281295229031376D+02
 0.000000000000000D+00 -.000000000000000D+00 0.000000000000000D+00 0.000000000000000D+00
 0.175584105056276D+03 0.000000000000000D+00 0.000000000000000D+00 0.175584105056276D+03
 0.138088126022360D+03 0.000000000000000D+00 0.000000000000000D+00 -.138088126022360D+03
 0.126195354912497D+03 -.598488358795417D+01 -.122874646331827D+03 -.281295229031376D+02
 0.411856105777791D+02 0.246127204818995D+02 -.172973538550327D+02 0.281295229031376D+02
 0.146291265588360D+03 -.186278368939454D+02 0.140172000186859D+03 0.374959790339161D+02
0.882954917535D-02 0.000000000000D+00 0.000000000000D+00 0.316073551619D+00 0.424013433579D-03  5 2 -2 -13 13 21 2 0.99778611D-01 0.57514502D-02 0.21683683D+05 0.28016388D+05 0.28016388D+05 0.11655282D+01  1  2  1  2  5  2       -2 0.949424682008D+01
  </mgrwgt>
  </event>
  <event npLO=' -1 ' npNLO=' 0 '>
  6     66 0.12487420E+02 0.87042570E+02 0.75467711E-02 0.11871262E+00
        2 -1    0    0  501    0 0.00000000E+00 0.00000000E+00 0.22075006E+03 0.22075006E+03 0.00000000E+00 0.0000E+00 0.9000E+01
       21 -1    0    0  502  501 0.00000000E+00 0.00000000E+00 -.11490202E+02 0.11490202E+02 0.00000000E+00 0.0000E+00 0.9000E+01
       23  2    1    2    0    0 -.10279706E+02 -.13261925E+00 0.16535679E+03 0.18714959E+03 0.87042570E+02 0.0000E+00 0.0000E+00
      -13  1    3    3    0    0 -.45489605E+02 0.16894305E+02 0.93053941E+02 0.10494645E+03 0.00000000E+00 0.0000E+00 0.9000E+01
       13  1    3    3    0    0 0.35209899E+02 -.17026924E+02 0.72302854E+02 0.82203138E+02 0.00000000E+00 0.0000E+00 0.9000E+01
        2  1    1    2  502    0 0.10279706E+02 0.13261925E+00 0.43903060E+02 0.45090671E+02 0.00000000E+00 0.0000E+00 0.9000E+01
#aMCatNLO 2  0  0  2  1 0.22757981D+02 0.00000000D+00  -5  5  0 0.00000000D+00 0.00000000D+00 0.00000000D+00 0.00000000D+00 0.00000000D+00
  <mgrwgt>
 0.5046867539D+02    2    2    0
 0.435212850613970D+02 0.000000000000000D+00 0.000000000000000D+00 0.435212850613970D+02
 0.435212850613970D+02 0.000000000000000D+00 0.000000000000000D+00 -.435212850613970D+02
 0.435212850613970D+02 -.400727822542679D+02 0.169641876392967D+02 0.700509483260114D+00
 0.435212850613970D+02 0.400727822542679D+02 -.169641876392967D+02 -.700509483260114D+00
 0.000000000000000D+00 0.000000000000000D+00 0.000000000000000D+00 0.000000000000000D+00
 0.548875425819213D+02 0.000000000000000D+00 0.000000000000000D+00 0.548875425819213D+02
 0.462119951292113D+02 0.000000000000000D+00 0.000000000000000D+00 -.462119951292113D+02
 0.485305306346839D+02 -.454896049139451D+02 0.168943048072726D+02 0.700509483260114D+00
 0.391170532050121D+02 0.352098991063952D+02 -.170269240564782D+02 -.700509483260114D+00
 0.134519538714366D+02 0.102797058075499D+02 0.132619249205670D+00 0.867554745271000D+01
-.189616681723D-03 0.000000000000D+00 0.000000000000D+00 0.455434746986D-01 0.000000000000D+00  5 2 21 -13 13 2 2 0.26928700D-01 0.22293918D-02 0.23969257D+04 0.76820990D+04 0.76820990D+04 0.12213872D+01  1  2 13  4  5  2       -2 -.609570180232D+02
0.313721028050D-03 0.000000000000D+00 0.000000000000D+00 0.455434746986D-01 0.440312478340D-04  5 2 21 -13 13 2 2 0.33961547D-01 0.17677235D-02 0.23969257D+04 0.76820990D+04 0.76820990D+04 0.12213872D+01  1  2  1  4  5  2       -2 0.111425693410D+03
  </mgrwgt>
  </event>
  <event npLO=' -1 ' npNLO=' 0 '>
  5     66 0.12487420E+02 0.40999260E+02 0.75467711E-02 0.11795283E+00
        2 -1    0    0  501    0 0.00000000E+00 0.00000000E+00 0.37360569E+02 0.37360569E+02 0.00000000E+00 0.0000E+00 0.9000E+01
       -2 -1    0    0    0  501 0.00000000E+00 0.00000000E+00 -.55063979E+02 0.55063979E+02 0.00000000E+00 0.0000E+00 0.9000E+01
       23  2    1    2    0    0 0.00000000E+00 0.00000000E+00 -.17703410E+02 0.92424548E+02 0.90713209E+02 0.0000E+00 0.0000E+00
      -13  1    3    3    0    0 0.84406080E+01 -.63090767E+01 -.53799413E+02 0.54821758E+02 0.00000000E+00 0.0000E+00 0.9000E+01
       13  1    3    3    0    0 -.84406080E+01 0.63090767E+01 0.36096004E+02 0.37602790E+02 0.00000000E+00 0.0000E+00 0.9000E+01
#aMCatNLO 1  0  0  1  2 0.13049057D+02 0.00000000D+00  -5  5  0 0.00000000D+00 0.00000000D+00 0.00000000D+00 0.00000000D+00 0.00000000D+00
  <mgrwgt>
 0.4080534949D+03    9    2    0
 0.453566045522431D+02 0.000000000000000D+00 0.000000000000000D+00 0.453566045522431D+02
 0.453566045522431D+02 0.000000000000000D+00 0.000000000000000D+00 -.453566045522431D+02
 0.453566045522431D+02 0.844060796323520D+01 -.630907674857544D+01 -.441154538036288D+02
 0.453566045522431D+02 -.844060796323520D+01 0.630907674857544D+01 0.441154538036288D+02
 0.000000000000000D+00 0.000000000000000D+00 -.000000000000000D+00 0.000000000000000D+00
 0.574312987319453D+02 0.000000000000000D+00 0.000000000000000D+00 0.574312987319453D+02
 0.485475898948574D+02 0.000000000000000D+00 0.000000000000000D+00 -.485475898948574D+02
 0.448146660740884D+02 0.785934255710353D+01 -.641689646201145D+00 -.441154538036288D+02
 0.466256722283583D+02 -.903354754474952D+01 0.120902880529349D+02 0.441154538036288D+02
 0.145385503243560D+02 0.117420498764599D+01 -.114485984067338D+02 0.888370883708789D+01
0.275493316288D-01 0.000000000000D+00 0.000000000000D+00 0.119881741611D+01 0.000000000000D+00  5 2 -2 -13 13 21 0 0.57477799D-02 0.84713813D-02 0.11104831D+03 0.82288863D+04 0.82288863D+04 0.12182071D+01  1  2  2  1  5  1        2 0.308724839110D+03
0.243382964915D-02 0.000000000000D+00 -.105796687360D-03 0.119881741611D+01 0.000000000000D+00  5 2 -2 -13 13 21 2 0.57477799D-02 0.84713813D-02 0.11104831D+03 0.82288863D+04 0.82288863D+04 0.12182071D+01  1  2  3  1  5  1        2 0.329003946463D+02
0.105138079468D-02 0.000000000000D+00 0.000000000000D+00 0.119881741611D+01 0.000000000000D+00  5 2 -2 -13 13 21 2 0.57477799D-02 0.84713813D-02 0.11104831D+03 0.82288863D+04 0.82288863D+04 0.12182071D+01  1  2 15  1  5  1        2 0.174848851724D+02
0.390330997201D-01 0.000000000000D+00 0.000000000000D+00 0.119881741611D+01 0.000000000000D+00  5 2 -2 -13 13 21 2 0.77899625D-02 0.84713813D-02 0.29733027D+03 0.83613355D+04 0.83613355D+04 0.12174724D+01  1  2 12  1  5  1        2 0.440751350714D+03
-.416628983271D-01 0.000000000000D+00 0.000000000000D+00 0.119881741611D+01 0.000000000000D+00  5 2 -2 -13 13 21 2 0.57477799D-02 0.84713813D-02 0.11104831D+03 0.82288863D+04 0.82288863D+04 0.12182071D+01  1  2  4  1  5  1        2 -.692870743777D+03
-.170353283072D-01 0.000000000000D+00 -.173596157703D-01 0.119881741611D+01 0.000000000000D+00  5 2 -2 -13 13 21 2 0.77744033D-02 0.84713813D-02 0.11104831D+03 0.82288863D+04 0.82288863D+04 0.12182071D+01  1  2  5  1  5  1        2 -.103895847339D+04
0.220287035091D-01 0.000000000000D+00 0.165968778256D-01 0.119881741611D+01 0.000000000000D+00  5 2 -2 -13 13 21 2 0.57477799D-02 0.84713813D-02 0.11104831D+03 0.82288863D+04 0.82288863D+04 0.12182071D+01  1  2  6  1  5  1        2 0.155470269011D+04
0.152341866403D-02 0.000000000000D+00 0.000000000000D+00 0.119881741611D+01 0.000000000000D+00  5 21 -2 -13 13 -2 2 0.77899625D-02 0.84713813D-02 0.29733027D+03 0.83613355D+04 0.83613355D+04 0.12174724D+01  1  2 12  3  5  1        2 0.197135231604D+03
-.268406037194D-03 0.000000000000D+00 -.674306284739D-03 0.119881741611D+01 0.000000000000D+00  5 21 -2 -13 13 -2 2 0.77744033D-02 0.84713813D-02 0.11104831D+03 0.82288863D+04 0.82288863D+04 0.12182071D+01  1  2  5  3  5  1        2 -.411816679284D+03
  </mgrwgt>
  </event>
  <event npLO=' -1 ' npNLO=' 0 '>
  5     66 0.12487420E+02 0.30704324E+02 0.75467711E-02 0.12043042E+00
        2 -1    0    0  501    0 0.00000000E+00 0.00000000E+00 0.12486351E+04 0.12486351E+04 0.00000000E+00 0.0000E+00 0.9000E+01
       -2 -1    0    0    0  501 0.00000000E+00 0.00000000E+00 -.12749318E+01 0.12749318E+01 0.00000000E+00 0.0000E+00 0.9000E+01
       23  2    1    2    0    0 0.00000000E+00 0.00000000E+00 0.12473602E+04 0.12499101E+04 0.79797862E+02 0.0000E+00 0.0000E+00
      -11  1    3    3    0    0 0.51714434E+01 -.14864708E+02 0.49401149E+02 0.51847631E+02 0.00000000E+00 0.0000E+00 0.9000E+01
       11  1    3    3    0    0 -.51714434E+01 0.14864708E+02 0.11979591E+04 0.11980624E+04 0.00000000E+00 0.0000E+00 0.9000E+01
#aMCatNLO 1  0  0  1  2 0.11677042D+01 0.00000000D+00  -5  5  0 0.00000000D+00 0.00000000D+00 0.00000000D+00 0.00000000D+00 0.00000000D+00
  <mgrwgt>
 0.3918621313D+03   11    2    0
 0.398989308968995D+02 0.000000000000000D+00 0.000000000000000D+00 0.398989308968995D+02
 0.398989308968995D+02 0.000000000000000D+00 0.000000000000000D+00 -.398989308968995D+02
 0.398989308968995D+02 0.517144344997038D+01 -.148647080624118D+02 -.366636238467856D+02
 0.398989308968995D+02 -.517144344997038D+01 0.148647080624118D+02 0.366636238467856D+02
 0.000000000000000D+00 -.000000000000000D+00 0.000000000000000D+00 0.000000000000000D+00
 0.405910189350567D+02 0.000000000000000D+00 0.000000000000000D+00 0.405910189350567D+02
 0.402344384330714D+02 0.000000000000000D+00 0.000000000000000D+00 -.402344384330714D+02
 0.400896400943755D+02 0.528089051084936D+01 -.153319967626658D+02 -.366636238467856D+02
 0.397139674325144D+02 -.506251041588527D+01 0.143996140205659D+02 0.366636238467856D+02
 0.102184984123812D+01 -.218380094964100D+00 0.932382742099926D+00 0.356580501985279D+00
0.324349487081D-02 0.000000000000D+00 0.000000000000D+00 0.387430037760D-02 0.000000000000D+00  5 2 -2 -11 11 21 0 0.19209771D+00 0.19614336D-03 0.24770337D+03 0.63676987D+04 0.63676987D+04 0.12301992D+01  1  2  2  1  5  1        2 0.114681879910D+03
0.939181726105D-05 0.000000000000D+00 -.124558743357D-04 0.387430037760D-02 0.000000000000D+00  5 2 -2 -11 11 21 2 0.19209771D+00 0.19614336D-03 0.24770337D+03 0.63676987D+04 0.63676987D+04 0.12301992D+01  1  2  3  1  5  1        2 -.166144588281D+01
0.125483442860D-03 0.000000000000D+00 0.000000000000D+00 0.387430037760D-02 0.000000000000D+00  5 2 -2 -11 11 21 2 0.19209771D+00 0.19614336D-03 0.24770337D+03 0.63676987D+04 0.63676987D+04 0.12301992D+01  1  2 15  1  5  1        2 0.671458098529D+01
0.965319941937D-07 0.000000000000D+00 0.000000000000D+00 0.387430037760D-02 0.000000000000D+00  5 2 -2 -11 11 21 2 0.19707320D+00 0.19614336D-03 0.26304309D+03 0.63686158D+04 0.63686158D+04 0.12301924D+01  1  2 12  1  5  1        2 0.496737842609D-02
-.320257473950D-01 0.000000000000D+00 0.000000000000D+00 0.387430037760D-02 0.000000000000D+00  5 2 -2 -11 11 21 2 0.19209771D+00 0.19614336D-03 0.24770337D+03 0.63676987D+04 0.63676987D+04 0.12301992D+01  1  2  4  1  5  1        2 -.171368803403D+04
-.124641076866D+00 0.000000000000D+00 -.189039302122D-01 0.387430037760D-02 0.000000000000D+00  5 2 -2 -11 11 21 2 0.19639892D+00 0.19614336D-03 0.24770337D+03 0.63676987D+04 0.63676987D+04 0.12301992D+01  1  2  5  1  5  1        2 -.962286956650D+04
0.125033658097D+00 0.000000000000D+00 0.188992964377D-01 0.387430037760D-02 0.000000000000D+00  5 2 -2 -11 11 21 2 0.19209771D+00 0.19614336D-03 0.24770337D+03 0.63676987D+04 0.63676987D+04 0.12301992D+01  1  2  6  1  5  1        2 0.997394879654D+04
0.320319476213D-01 0.000000000000D+00 0.000000000000D+00 0.387430037760D-02 0.341068243548D-01  5 2 -2 -11 11 21 2 0.19542985D+00 0.19779272D-03 0.26304309D+03 0.63686158D+04 0.63686158D+04 0.12301924D+01  1  2 11  1  5  1        2 0.165119050800D+04
0.435188702500D-08 0.000000000000D+00 0.000000000000D+00 0.387430037760D-02 0.000000000000D+00  5 21 -2 -11 11 -2 2 0.19707320D+00 0.19614336D-03 0.26304309D+03 0.63686158D+04 0.63686158D+04 0.12301924D+01  1  2 12  3  5  1        2 0.116452953049D-03
-.497354402099D-03 0.000000000000D+00 -.759449440809D-04 0.387430037760D-02 0.000000000000D+00  5 21 -2 -11 11 -2 2 0.19639892D+00 0.19614336D-03 0.24770337D+03 0.63676987D+04 0.63676987D+04 0.12301992D+01  1  2  5  3  5  1        2 -.201294414931D+02
0.134969731982D-03 0.000000000000D+00 0.000000000000D+00 0.387430037760D-02 0.107267618336D-03  5 21 -2 -11 11 -2 2 0.19542985D+00 0.19779272D-03 0.26304309D+03 0.63686158D+04 0.63686158D+04 0.12301924D+01  1  2 11  3  5  1        2 0.366976993025D+01
  </mgrwgt>
  </event>
  <event npLO=' -1 ' npNLO=' 0 '>
  5     66 0.12487420E+02 0.91480598E+02 0.75467711E-02 0.11786803E+00
        2 -1    0    0  501    0 0.00000000E+00 0.00000000E+00 0.36569430E+02 0.36569430E+02 0.00000000E+00 0.0000E+00 0.9000E+01
       -2 -1    0    0    0  501 0.00000000E+00 0.00000000E+00 -.57211035E+02 0.57211035E+02 0.00000000E+00 0.0000E+00 0.9000E+01
       23  2    1    2    0    0 0.00000000E+00 0.00000000E+00 -.20641604E+02 0.93780465E+02 0.91480598E+02 0.0000E+00 0.0000E+00
      -13  1    3    3    0    0 -.25025366E+02 0.34538369E+02 -.27259123E+02 0.50618452E+02 0.00000000E+00 0.0000E+00 0.9000E+01
       13  1    3    3    0    0 0.25025366E+02 -.34538369E+02 0.66175184E+01 0.43162014E+02 0.00000000E+00 0.0000E+00 0.9000E+01
#aMCatNLO 1  0  0  2  1 0.11914204D+03 0.00000000D+00  -5  5  0 0.00000000D+00 0.00000000D+00 0.00000000D+00 0.00000000D+00 0.00000000D+00
  <mgrwgt>
 0.3255458411D+03    3    2    0
 0.457402989851537D+02 0.000000000000000D+00 0.000000000000000D+00 0.457402989851537D+02
 0.457402989851537D+02 0.000000000000000D+00 0.000000000000000D+00 -.457402989851537D+02
 0.457402989851537D+02 -.250253657039141D+02 0.345383690233053D+02 -.165229261284614D+02
 0.457402989851537D+02 0.250253657039141D+02 -.345383690233053D+02 0.165229261284614D+02
 0.000000000000000D+00 0.000000000000000D+00 -.000000000000000D+00 0.000000000000000D+00
 0.154821512302210D+03 0.000000000000000D+00 0.000000000000000D+00 0.154821512302210D+03
 0.461053856345492D+02 0.000000000000000D+00 0.000000000000000D+00 -.461053856345492D+02
 0.486619428405173D+02 -.293789348983994D+02 0.350978030281497D+02 -.165229261284614D+02
 0.432150589472069D+02 0.209229916660826D+02 -.340112136170560D+02 0.165229261284614D+02
 0.109049896149035D+03 0.845594323231681D+01 -.108658941109373D+01 0.108716126667661D+03
0.300482934555D-01 0.000000000000D+00 0.000000000000D+00 0.778209233615D+00 0.000000000000D+00  5 2 -2 -13 13 21 0 0.56260662D-02 0.88016977D-02 0.18191679D+04 0.83686998D+04 0.83686998D+04 0.12174319D+01  1  2  2  2  5  2       -2 0.327281497923D+03
-.165942902527D-02 0.000000000000D+00 -.115393358767D-03 0.778209233615D+00 0.000000000000D+00  5 2 -2 -13 13 21 2 0.56260662D-02 0.88016977D-02 0.18191679D+04 0.83686998D+04 0.83686998D+04 0.12174319D+01  1  2  3  2  5  2       -2 -.296314711534D+02
0.172801712416D-02 0.000000000000D+00 0.000000000000D+00 0.778209233615D+00 0.000000000000D+00  5 2 -2 -13 13 21 2 0.56260662D-02 0.88016977D-02 0.18191679D+04 0.83686998D+04 0.83686998D+04 0.12174319D+01  1  2 15  2  5  2       -2 0.278958143487D+02
  </mgrwgt>
  </event>
  <event npLO=' -1 ' npNLO=' 0 '>
  5     66 0.12487420E+02 0.60040979E+02 0.75467711E-02 0.11546123E+00
        2 -1    0    0  501    0 0.00000000E+00 0.00000000E+00 0.83357037E+03 0.83357037E+03 0.00000000E+00 0.0000E+00 0.9000E+01
       -2 -1    0    0    0  501 0.00000000E+00 0.00000000E+00 -.25966005E+01 0.25966005E+01 0.00000000E+00 0.0000E+00 0.9000E+01
       23  2    1    2    0    0 0.00000000E+00 0.00000000E+00 0.83097377E+03 0.83616697E+03 0.93047284E+02 0.0000E+00 0.0000E+00
      -13  1    3    3    0    0 0.33407019E+02 0.31907897E+02 0.36601520E+03 0.36891906E+03 0.00000000E+00 0.0000E+00 0.9000E+01
       13  1    3    3    0    0 -.33407019E+02 -.31907897E+02 0.46495857E+03 0.46724791E+03 0.00000000E+00 0.0000E+00 0.9000E+01
#aMCatNLO 1  0  0  1  2 0.86744654D+02 0.00000000D+00  -5  5  0 0.00000000D+00 0.00000000D+00 0.00000000D+00 0.00000000D+00 0.00000000D+00
  <mgrwgt>
 0.4263665712D+03    5    2    0
 0.465236419735594D+02 0.000000000000000D+00 0.000000000000000D+00 0.465236419735594D+02
 0.465236419735594D+02 0.000000000000000D+00 0.000000000000000D+00 -.465236419735594D+02
 0.465236419735594D+02 0.334070189883375D+02 0.319078974343922D+02 -.550512725675822D+01
 0.465236419735594D+02 -.334070189883375D+02 -.319078974343922D+02 0.550512725675822D+01
 0.000000000000000D+00 0.000000000000000D+00 0.000000000000000D+00 -.000000000000000D+00
 0.673938184932638D+02 0.000000000000000D+00 0.000000000000000D+00 0.673938184932638D+02
 0.949318055012522D+02 0.000000000000000D+00 0.000000000000000D+00 -.949318055012522D+02
 0.295324020765400D+02 0.249209117463293D+02 0.148594920515133D+02 -.550512725675822D+01
 0.759625397690237D+02 -.470736629337809D+02 -.593638886870140D+02 0.550512725675822D+01
 0.568306821489523D+02 0.221527511874517D+02 0.445043966355007D+02 -.275379870079885D+02
0.180624079909D-01 0.000000000000D+00 0.000000000000D+00 0.226818034884D+00 0.000000000000D+00  5 2 -2 -13 13 21 0 0.12824160D+00 0.39947700D-03 0.21341428D+04 0.86577970D+04 0.86577970D+04 0.12158741D+01  1  2  2  1  5  1        2 0.432556581879D+03
-.100340646267D-02 0.000000000000D+00 -.693644026262D-04 0.226818034884D+00 0.000000000000D+00  5 2 -2 -13 13 21 2 0.12824160D+00 0.39947700D-03 0.21341428D+04 0.86577970D+04 0.86577970D+04 0.12158741D+01  1  2  3  1  5  1        2 -.389629576557D+02
0.920926069152D-03 0.000000000000D+00 0.000000000000D+00 0.226818034884D+00 0.000000000000D+00  5 2 -2 -13 13 21 2 0.12824160D+00 0.39947700D-03 0.21341428D+04 0.86577970D+04 0.86577970D+04 0.12158741D+01  1  2 15  1  5  1        2 0.326038778150D+02
0.351337082788D-04 0.000000000000D+00 0.000000000000D+00 0.226818034884D+00 0.000000000000D+00  5 2 -2 -13 13 21 2 0.37906467D+00 0.39947700D-03 0.59668355D+04 0.11129183D+05 0.11129183D+05 0.12045450D+01  1  2 12  1  5  1        2 0.165847901249D+00
0.432028130670D-05 0.000000000000D+00 0.000000000000D+00 0.226818034884D+00 0.000000000000D+00  5 21 -2 -13 13 -2 2 0.37906467D+00 0.39947700D-03 0.59668355D+04 0.11129183D+05 0.11129183D+05 0.12045450D+01  1  2 12  3  5  1        2 0.322130963404D-02
  </mgrwgt>
  </event>
  <event npLO=' -1 ' npNLO=' 0 '>
  5     66 0.12487420E+02 0.91191563E+02 0.75467711E-02 0.11251798E+00
        2 -1    0    0  501    0 0.00000000E+00 0.00000000E+00 0.20699879E+03 0.20699879E+03 0.00000000E+00 0.0000E+00 0.9000E+01
       -2 -1    0    0    0  501 0.00000000E+00 0.00000000E+00 -.10043418E+02 0.10043418E+02 0.00000000E+00 0.0000E+00 0.9000E+01
       23  2    1    2    0    0 0.00000000E+00 0.00000000E+00 0.19695537E+03 0.21704221E+03 0.91191563E+02 0.0000E+00 0.0000E+00
      -11  1    3    3    0    0 -.32297543E+02 0.41446848E+01 0.17444125E+03 0.17745439E+03 0.00000000E+00 0.0000E+00 0.9000E+01
       11  1    3    3    0    0 0.32297543E+02 -.41446848E+01 0.22514117E+02 0.39587815E+02 0.00000000E+00 0.0000E+00 0.9000E+01
#aMCatNLO 1  0  0  2  1 0.10610641D+03 0.00000000D+00  -5  5  0 0.00000000D+00 0.00000000D+00 0.00000000D+00 0.00000000D+00 0.00000000D+00
  <mgrwgt>
 0.3514744752D+03    5    2    0
 0.455957814989672D+02 0.000000000000000D+00 0.000000000000000D+00 0.455957814989672D+02
 0.455957814989672D+02 0.000000000000000D+00 0.000000000000000D+00 -.455957814989672D+02
 0.455957814989672D+02 -.322975426019067D+02 0.414468480437790D+01 0.319165414832488D+02
 0.455957814989672D+02 0.322975426019067D+02 -.414468480437790D+01 -.319165414832488D+02
 0.000000000000000D+00 0.000000000000000D+00 -.000000000000000D+00 -.000000000000000D+00
 0.867587488798774D+02 0.000000000000000D+00 0.000000000000000D+00 0.867587488798774D+02
 0.142301725662654D+03 0.000000000000000D+00 0.000000000000000D+00 -.142301725662654D+03
 0.774442814150546D+02 -.495308660516636D+02 0.502557898337534D+02 0.319165414832488D+02
 0.485040735008221D+02 0.191176628181994D+02 0.311206441818105D+02 -.319165414832488D+02
 0.103112119626654D+03 0.304132032334642D+02 -.813764340155639D+02 -.555429767827761D+02
0.224382868038D-01 0.000000000000D+00 0.000000000000D+00 0.825035217989D+00 0.000000000000D+00  5 2 -2 -11 11 21 0 0.31845968D-01 0.15451412D-02 0.10603097D+04 0.83159012D+04 0.83159012D+04 0.12177229D+01  1  2  2  2  5  2       -2 0.382354885718D+03
-.107479087993D-02 0.000000000000D+00 -.861689294634D-04 0.825035217989D+00 0.000000000000D+00  5 2 -2 -11 11 21 2 0.31845968D-01 0.15451412D-02 0.10603097D+04 0.83159012D+04 0.83159012D+04 0.12177229D+01  1  2  3  2  5  2       -2 -.316424572697D+02
0.111664321115D-02 0.000000000000D+00 0.000000000000D+00 0.825035217989D+00 0.000000000000D+00  5 2 -2 -11 11 21 2 0.31845968D-01 0.15451412D-02 0.10603097D+04 0.83159012D+04 0.83159012D+04 0.12177229D+01  1  2 15  2  5  2       -2 0.282155384152D+02
0.186268712960D-01 0.000000000000D+00 -.967102163772D-02 0.825035217989D+00 0.000000000000D+00  5 2 -2 -11 11 21 2 0.31845968D-01 0.91285860D-02 0.10603097D+04 0.83159012D+04 0.83159012D+04 0.12177229D+01  1  2  5  2  5  2       -2 -.251886014437D+01
0.346599833548D-02 0.000000000000D+00 -.210518554199D-02 0.825035217989D+00 0.000000000000D+00  5 2 21 -11 11 2 2 0.31845968D-01 0.91285860D-02 0.10603097D+04 0.83159012D+04 0.83159012D+04 0.12177229D+01  1  2  5  4  5  2       -2 -.249346315041D+02
  </mgrwgt>
  </event>
  <event npLO=' -1 ' npNLO=' 0 '>
  5     66 0.12487420E+02 0.52254501E+02 0.75467711E-02 0.11799444E+00
        2 -1    0    0  501    0 0.00000000E+00 0.00000000E+00 0.10959894E+02 0.10959894E+02 0.00000000E+00 0.0000E+00 0.9000E+01
       -2 -1    0    0    0  501 0.00000000E+00 0.00000000E+00 -.18935381E+03 0.18935381E+03 0.00000000E+00 0.0000E+00 0.9000E+01
       23  2    1    2    0    0 0.00000000E+00 0.00000000E+00 -.17839391E+03 0.20031370E+03 0.91110868E+02 0.0000E+00 0.0000E+00
      -11  1    3    3    0    0 -.43007499E+02 0.41519229E+01 -.12093675E+03 0.12842344E+03 0.00000000E+00 0.0000E+00 0.9000E+01
       11  1    3    3    0    0 0.43007499E+02 -.41519229E+01 -.57457167E+02 0.71890260E+02 0.00000000E+00 0.0000E+00 0.9000E+01
#aMCatNLO 1  0  0  2  1 0.41196163D+02 0.00000000D+00  -5  5  0 0.00000000D+00 0.00000000D+00 0.00000000D+00 0.00000000D+00 0.00000000D+00
  <mgrwgt>
 0.2866128243D+03    6    2    0
 0.455554342380075D+02 0.000000000000000D+00 0.000000000000000D+00 0.455554342380075D+02
 0.455554342380075D+02 0.000000000000000D+00 0.000000000000000D+00 -.455554342380075D+02
 0.455554342380075D+02 -.430074992822477D+02 0.415192286881116D+01 -.144365553575751D+02
 0.455554342380075D+02 0.430074992822477D+02 -.415192286881116D+01 0.144365553575751D+02
 0.000000000000000D+00 -.000000000000000D+00 0.000000000000000D+00 0.000000000000000D+00
 0.711136041824801D+02 0.000000000000000D+00 0.000000000000000D+00 0.711136041824801D+02
 0.458212754016429D+02 0.000000000000000D+00 0.000000000000000D+00 -.458212754016429D+02
 0.441277844781945D+02 -.416330605908145D+02 0.235276394974520D+01 -.144365553575751D+02
 0.470992925005802D+02 0.444274777709400D+02 -.601069400115493D+01 0.144365553575751D+02
 0.257078026053483D+02 -.279441718012547D+01 0.365793005140973D+01 0.252923287808372D+02
0.323599904159D-01 0.000000000000D+00 0.000000000000D+00 0.766354608622D+00 0.000000000000D+00  5 2 -2 -11 11 21 0 0.16861375D-02 0.29131355D-01 0.18668835D+04 0.83011904D+04 0.83011904D+04 0.12178044D+01  1  2  2  2  5  2       -2 0.260395868563D+03
-.179165643690D-02 0.000000000000D+00 -.124270883778D-03 0.766354608622D+00 0.000000000000D+00  5 2 -2 -11 11 21 2 0.16861375D-02 0.29131355D-01 0.18668835D+04 0.83011904D+04 0.83011904D+04 0.12178044D+01  1  2  3  2  5  2       -2 -.235942409346D+02
0.176776099388D-02 0.000000000000D+00 0.000000000000D+00 0.766354608622D+00 0.000000000000D+00  5 2 -2 -11 11 21 2 0.16861375D-02 0.29131355D-01 0.18668835D+04 0.83011904D+04 0.83011904D+04 0.12178044D+01  1  2 15  2  5  2       -2 0.210962037788D+02
0.422483661202D-02 0.000000000000D+00 0.000000000000D+00 0.766354608622D+00 0.000000000000D+00  5 2 -2 -11 11 21 2 0.16861375D-02 0.45740422D-01 0.20763923D+04 0.83223796D+04 0.83223796D+04 0.12176871D+01  1  2 12  2  5  2       -2 0.227123172056D+02
-.605349742814D-03 0.000000000000D+00 0.000000000000D+00 0.766354608622D+00 0.000000000000D+00  5 2 -2 -11 11 21 2 0.16861375D-02 0.29131355D-01 0.18668835D+04 0.83011904D+04 0.83011904D+04 0.12178044D+01  1  2  4  2  5  2       -2 -.722415619309D+01
0.219976249312D-03 0.000000000000D+00 0.000000000000D+00 0.766354608622D+00 0.000000000000D+00  5 2 21 -11 11 2 2 0.16861375D-02 0.45740422D-01 0.20763923D+04 0.83223796D+04 0.83223796D+04 0.12176871D+01  1  2 12  4  5  2       -2 0.132268319225D+02
  </mgrwgt>
  </event>
  <event npLO=' -1 ' npNLO=' 0 '>
  6     66 -.12487420E+02 0.83988592E+02 0.75467711E-02 0.11947957E+00
        2 -1    0    0  502    0 0.00000000E+00 0.00000000E+00 0.12580044E+04 0.12580044E+04 0.00000000E+00 0.0000E+00 0.9000E+01
       -2 -1    0    0    0  501 0.00000000E+00 0.00000000E+00 -.15622915E+01 0.15622915E+01 0.00000000E+00 0.0000E+00 0.9000E+01
       23  2    1    2    0    0 -.12409496E+01 0.22061849E+01 0.12456858E+04 0.12485166E+04 0.83988592E+02 0.0000E+00 0.0000E+00
      -11  1    3    3    0    0 -.61979506E+01 0.42741435E+02 0.63718478E+03 0.63864676E+03 0.00000000E+00 0.0000E+00 0.9000E+01
       11  1    3    3    0    0 0.49570010E+01 -.40535250E+02 0.60850103E+03 0.60986981E+03 0.00000000E+00 0.0000E+00 0.9000E+01
       21  1    1    2  502  501 0.12409496E+01 -.22061849E+01 0.10756305E+02 0.11050127E+02 0.00000000E+00 0.0000E+00 0.9000E+01
#aMCatNLO 2  0  0  1  2 0.87134265D+01 0.00000000D+00  -5  5  0 0.00000000D+00 0.00000000D+00 0.00000000D+00 0.00000000D+00 0.00000000D+00
  <mgrwgt>
 -.2724549955D+03    2    2    0
 0.419942960590314D+02 0.000000000000000D+00 0.000000000000000D+00 0.419942960590314D+02
 0.419942960590314D+02 0.000000000000000D+00 0.000000000000000D+00 -.419942960590314D+02
 0.419942960590314D+02 -.556879279481498D+01 0.416229059345249D+02 -.207725462316846D+00
 0.419942960590314D+02 0.556879279481498D+01 -.416229059345249D+02 0.207725462316846D+00
 0.000000000000000D+00 0.000000000000000D+00 -.000000000000000D+00 -.000000000000000D+00
 0.423806798340281D+02 0.000000000000000D+00 0.000000000000000D+00 0.423806798340281D+02
 0.463741861842558D+02 0.000000000000000D+00 0.000000000000000D+00 -.463741861842558D+02
 0.431889803993752D+02 -.619795061717286D+01 0.427414352381504D+02 -.207725462316846D+00
 0.408377463823196D+02 0.495700102522624D+01 -.405352503452843D+02 0.207725462316846D+00
 0.472813923658903D+01 0.124094959194661D+01 -.220618489286609D+01 -.399350635022779D+01
-.103581706919D-01 0.000000000000D+00 0.000000000000D+00 0.149574666585D-01 0.000000000000D+00  5 2 -2 -11 11 21 2 0.21372474D+00 0.21765202D-03 0.18730262D+04 0.70604908D+04 0.70604908D+04 0.12253263D+01  1  2 13  1  5  1        2 -.407467861387D+03
0.334691667544D-02 0.000000000000D+00 0.000000000000D+00 0.149574666585D-01 0.188366683652D-01  5 2 -2 -11 11 21 2 0.19353914D+00 0.24035253D-03 0.18730262D+04 0.70604908D+04 0.70604908D+04 0.12253263D+01  1  2  1  1  5  1        2 0.135012865891D+03
  </mgrwgt>
  </event>
  <event npLO=' -1 ' npNLO=' 0 '>
  5     66 0.12487420E+02 0.45074938E+02 0.75467711E-02 0.11742477E+00
        2 -1    0    0  501    0 0.00000000E+00 0.00000000E+00 0.25936181E+03 0.25936181E+03 0.00000000E+00 0.0000E+00 0.9000E+01
       -2 -1    0    0    0  501 0.00000000E+00 0.00000000E+00 -.80990885E+01 0.80990885E+01 0.00000000E+00 0.0000E+00 0.9000E+01
       23  2    1    2    0    0 0.00000000E+00 0.00000000E+00 0.25126273E+03 0.26746090E+03 0.91664481E+02 0.0000E+00 0.0000E+00
      -13  1    3    3    0    0 -.92283734E+01 0.17382898E+02 0.48578631E+01 0.20271331E+02 0.00000000E+00 0.0000E+00 0.9000E+01
       13  1    3    3    0    0 0.92283734E+01 -.17382898E+02 0.24640486E+03 0.24718957E+03 0.00000000E+00 0.0000E+00 0.9000E+01
#aMCatNLO 1  0  0  1  2 0.33882032D+02 0.00000000D+00  -5  5  0 0.00000000D+00 0.00000000D+00 0.00000000D+00 0.00000000D+00 0.00000000D+00
  <mgrwgt>
 0.3120283288D+03    6    2    0
 0.458322406911034D+02 0.000000000000000D+00 0.000000000000000D+00 0.458322406911034D+02
 0.458322406911034D+02 0.000000000000000D+00 0.000000000000000D+00 -.458322406911034D+02
 0.458322406911034D+02 -.922837343781491D+01 0.173828982822150D+02 -.413916206226530D+02
 0.458322406911034D+02 0.922837343781491D+01 -.173828982822150D+02 0.413916206226530D+02
 0.000000000000000D+00 0.000000000000000D+00 -.000000000000000D+00 -.000000000000000D+00
 0.558128125114944D+02 0.000000000000000D+00 0.000000000000000D+00 0.558128125114944D+02
 0.606528794174500D+02 0.000000000000000D+00 0.000000000000000D+00 -.606528794174500D+02
 0.517100335597233D+02 -.160852292723128D+02 0.264938995286689D+02 -.413916206226530D+02
 0.424945683812935D+02 0.301933022263156D+01 -.913267371307558D+01 0.413916206226530D+02
 0.222610899879277D+02 0.130658990496813D+02 -.173612258155933D+02 -.484006690595563D+01
0.192913557460D-01 0.000000000000D+00 0.000000000000D+00 0.123309234976D+01 0.000000000000D+00  5 2 -2 -13 13 21 0 0.39901818D-01 0.12460136D-02 0.38732803D+03 0.84023771D+04 0.84023771D+04 0.12172474D+01  1  2  2  1  5  1        2 0.348403005573D+03
-.140533937839D-03 0.000000000000D+00 -.740838855954D-04 0.123309234976D+01 0.000000000000D+00  5 2 -2 -13 13 21 2 0.39901818D-01 0.12460136D-02 0.38732803D+03 0.84023771D+04 0.84023771D+04 0.12172474D+01  1  2  3  1  5  1        2 -.986057902948D+01
0.664210161817D-03 0.000000000000D+00 0.000000000000D+00 0.123309234976D+01 0.000000000000D+00  5 2 -2 -13 13 21 2 0.39901818D-01 0.12460136D-02 0.38732803D+03 0.84023771D+04 0.84023771D+04 0.12172474D+01  1  2 15  1  5  1        2 0.177738839328D+02
0.649311654646D-02 0.000000000000D+00 0.000000000000D+00 0.123309234976D+01 0.000000000000D+00  5 2 -2 -13 13 21 2 0.64303680D-01 0.12460136D-02 0.97162896D+03 0.88745070D+04 0.88745070D+04 0.12147441D+01  1  2 12  1  5  1        2 0.104552462153D+03
-.610568510653D-02 0.000000000000D+00 0.000000000000D+00 0.123309234976D+01 0.000000000000D+00  5 2 -2 -13 13 21 2 0.39901818D-01 0.12460136D-02 0.38732803D+03 0.84023771D+04 0.84023771D+04 0.12172474D+01  1  2  4  1  5  1        2 -.163384640363D+03
0.352942985476D-03 0.000000000000D+00 0.000000000000D+00 0.123309234976D+01 0.000000000000D+00  5 21 -2 -13 13 -2 2 0.64303680D-01 0.12460136D-02 0.97162896D+03 0.88745070D+04 0.88745070D+04 0.12147441D+01  1  2 12  3  5  1        2 0.145441965824D+02
  </mgrwgt>
  </event>
  <event npLO=' -1 ' npNLO=' 0 '>
  5     66 0.12487420E+02 0.91257306E+02 0.75467711E-02 0.10930977E+00
        2 -1    0    0  501    0 0.00000000E+00 0.00000000E+00 0.48683302E+03 0.48683302E+03 0.00000000E+00 0.0000E+00 0.9000E+01
       -2 -1    0    0    0  501 0.00000000E+00 0.00000000E+00 -.42765669E+01 0.42765669E+01 0.00000000E+00 0.0000E+00 0.9000E+01
       23  2    1    2    0    0 0.00000000E+00 0.00000000E+00 0.48255645E+03 0.49110959E+03 0.91257306E+02 0.0000E+00 0.0000E+00
      -13  1    3    3    0    0 -.24980989E+02 0.23577554E+01 0.44637020E+03 0.44707490E+03 0.00000000E+00 0.0000E+00 0.9000E+01
       13  1    3    3    0    0 0.24980989E+02 -.23577554E+01 0.36186248E+02 0.44034684E+02 0.00000000E+00 0.0000E+00 0.9000E+01
#aMCatNLO 1  0  0  1  1 0.21524348D+03 0.00000000D+00  -5  5  0 0.00000000D+00 0.00000000D+00 0.00000000D+00 0.00000000D+00 0.00000000D+00
  <mgrwgt>
 0.4255330857D+03    3    2    0
 0.456286530850871D+02 0.000000000000000D+00 0.000000000000000D+00 0.456286530850871D+02
 0.456286530850871D+02 0.000000000000000D+00 0.000000000000000D+00 -.456286530850871D+02
 0.456286530850871D+02 -.249809894372301D+02 0.235775544733660D+01 0.381099086635849D+02
 0.456286530850871D+02 0.249809894372301D+02 -.235775544733660D+01 -.381099086635849D+02
 0.000000000000000D+00 0.000000000000000D+00 0.000000000000000D+00 -.000000000000000D+00
 0.110794189555553D+03 0.000000000000000D+00 0.000000000000000D+00 0.110794189555553D+03
 0.193059919534985D+03 0.000000000000000D+00 0.000000000000000D+00 -.193059919534985D+03
 0.106361372947773D+03 -.940017529958596D+02 -.320007335961841D+02 0.381099086635849D+02
 0.481331071377626D+02 -.175975168772769D+02 -.235533068621479D+02 -.381099086635849D+02
 0.149359629005002D+03 0.111599269873137D+03 0.555540404583321D+02 -.822657299794314D+02
0.193799094412D-01 0.000000000000D+00 0.000000000000D+00 0.927587473041D+00 0.000000000000D+00  5 2 -2 -13 13 21 0 0.74897388D-01 0.65793337D-03 0.62960884D+03 0.83278959D+04 0.83278959D+04 0.12176566D+01  1  2  2  1  5  1        2 0.430199697972D+03
-.608556393894D-03 0.000000000000D+00 -.744239551017D-04 0.927587473041D+00 0.000000000000D+00  5 2 -2 -13 13 21 2 0.74897388D-01 0.65793337D-03 0.62960884D+03 0.83278959D+04 0.83278959D+04 0.12176566D+01  1  2  3  1  5  1        2 -.263547550373D+02
0.658952835860D-03 0.000000000000D+00 0.000000000000D+00 0.927587473041D+00 0.000000000000D+00  5 2 -2 -13 13 21 2 0.74897388D-01 0.65793337D-03 0.62960884D+03 0.83278959D+04 0.83278959D+04 0.12176566D+01  1  2 15  1  5  1        2 0.216881427906D+02
  </mgrwgt>
  </event>
  <event npLO=' -1 ' npNLO=' 0 '>
  5     66 0.12487420E+02 0.89124300E+02 0.75467711E-02 0.11756045E+00
        2 -1    0    0  501    0 0.00000000E+00 0.00000000E+00 0.52048315E+02 0.52048315E+02 0.00000000E+00 0.0000E+00 0.9000E+01
       -2 -1    0    0    0  501 0.00000000E+00 0.00000000E+00 -.38152728E+02 0.38152728E+02 0.00000000E+00 0.0000E+00 0.9000E+01
       23  2    1    2    0    0 0.00000000E+00 0.00000000E+00 0.13895586E+02 0.90201043E+02 0.89124300E+02 0.0000E+00 0.0000E+00
      -11  1    3    3    0    0 0.25706474E+02 -.16687778E+02 -.25792381E+02 0.40056855E+02 0.00000000E+00 0.0000E+00 0.9000E+01
       11  1    3    3    0    0 -.25706474E+02 0.16687778E+02 0.39687968E+02 0.50144187E+02 0.00000000E+00 0.0000E+00 0.9000E+01
#aMCatNLO 1  0  0  2  1 0.15132784D+03 0.00000000D+00  -5  5  0 0.00000000D+00 0.00000000D+00 0.00000000D+00 0.00000000D+00 0.00000000D+00
  <mgrwgt>
 0.2680614204D+03    3    2    0
 0.445621497579164D+02 0.000000000000000D+00 0.000000000000000D+00 0.445621497579164D+02
 0.445621497579164D+02 0.000000000000000D+00 0.000000000000000D+00 -.445621497579164D+02
 0.445621497579164D+02 0.257064739809550D+02 -.166877775962942D+02 -.323493503089331D+02
 0.445621497579164D+02 -.257064739809550D+02 0.166877775962942D+02 0.323493503089331D+02
 0.000000000000000D+00 0.000000000000000D+00 -.000000000000000D+00 0.000000000000000D+00
 0.197389175142801D+03 0.000000000000000D+00 0.000000000000000D+00 0.197389175142801D+03
 0.480631474862006D+02 0.000000000000000D+00 0.000000000000000D+00 -.480631474862006D+02
 0.376895527623819D+02 0.182518468878549D+02 -.639468585628726D+01 -.323493503089331D+02
 0.557944290164835D+02 -.348019801915146D+02 0.292465385749283D+02 0.323493503089331D+02
 0.151968340850136D+03 0.165501333036597D+02 -.228518527186410D+02 0.149326027656600D+03
0.214972995054D-01 0.000000000000D+00 0.000000000000D+00 0.239054348352D+00 0.000000000000D+00  5 2 -2 -11 11 21 0 0.80074330D-02 0.58696505D-02 0.93930473D+03 0.79431408D+04 0.79431408D+04 0.12198383D+01  1  2  2  2  5  2       -2 0.271347910690D+03
-.990840033829D-03 0.000000000000D+00 -.825552904697D-04 0.239054348352D+00 0.000000000000D+00  5 2 -2 -11 11 21 2 0.80074330D-02 0.58696505D-02 0.93930473D+03 0.79431408D+04 0.79431408D+04 0.12198383D+01  1  2  3  2  5  2       -2 -.219205389421D+02
0.992110599368D-03 0.000000000000D+00 0.000000000000D+00 0.239054348352D+00 0.000000000000D+00  5 2 -2 -11 11 21 2 0.80074330D-02 0.58696505D-02 0.93930473D+03 0.79431408D+04 0.79431408D+04 0.12198383D+01  1  2 15  2  5  2       -2 0.186340486546D+02
  </mgrwgt>
  </event>
  <event npLO=' -1 ' npNLO=' 0 '>
  5     66 0.12487420E+02 0.62280058E+02 0.75467711E-02 0.11714071E+00
        2 -1    0    0  501    0 0.00000000E+00 0.00000000E+00 0.28005153E+01 0.28005153E+01 0.00000000E+00 0.0000E+00 0.9000E+01
       -2 -1    0    0    0  501 0.00000000E+00 0.00000000E+00 -.72654498E+03 0.72654498E+03 0.00000000E+00 0.0000E+00 0.9000E+01
       23  2    1    2    0    0 0.00000000E+00 0.00000000E+00 -.72374446E+03 0.72934549E+03 0.90215306E+02 0.0000E+00 0.0000E+00
      -11  1    3    3    0    0 -.25009556E+01 -.34178223E+02 -.12474759E+03 0.12936911E+03 0.00000000E+00 0.0000E+00 0.9000E+01
       11  1    3    3    0    0 0.25009556E+01 0.34178223E+02 -.59899687E+03 0.59997638E+03 0.00000000E+00 0.0000E+00 0.9000E+01
#aMCatNLO 1  0  0  2  1 0.59115802D+02 0.00000000D+00  -5  5  0 0.00000000D+00 0.00000000D+00 0.00000000D+00 0.00000000D+00 0.00000000D+00
  <mgrwgt>
 0.8944753305D+03    5    2    0
 0.451076528753038D+02 0.000000000000000D+00 0.000000000000000D+00 0.451076528753038D+02
 0.451076528753038D+02 0.000000000000000D+00 0.000000000000000D+00 -.451076528753038D+02
 0.451076528753038D+02 -.250095561724047D+01 -.341782230780183D+02 0.293307796716813D+02
 0.451076528753038D+02 0.250095561724047D+01 0.341782230780183D+02 -.293307796716813D+02
 0.000000000000000D+00 -.000000000000000D+00 -.000000000000000D+00 0.000000000000000D+00
 0.767541902746920D+02 0.000000000000000D+00 0.000000000000000D+00 0.767541902746920D+02
 0.567550761684225D+02 0.000000000000000D+00 0.000000000000000D+00 -.567550761684225D+02
 0.456483410896636D+02 0.130429703057674D+02 -.324554669307411D+02 0.293307796716813D+02
 0.500886880090269D+02 0.188053869412876D+02 0.359852671562318D+02 -.293307796716813D+02
 0.377722373444240D+02 -.318483572470550D+02 -.352980022549069D+01 0.199991141062695D+02
0.263687913780D+00 0.000000000000D+00 0.000000000000D+00 0.498299967528D+00 0.000000000000D+00  5 2 -2 -11 11 21 0 0.43084851D-03 0.11177615D+00 0.11744057D+04 0.81388014D+04 0.81388014D+04 0.12187144D+01  1  2  2  2  5  2       -2 0.891882731743D+03
-.133043633330D-01 0.000000000000D+00 -.101263101954D-02 0.498299967528D+00 0.000000000000D+00  5 2 -2 -11 11 21 2 0.43084851D-03 0.11177615D+00 0.11744057D+04 0.81388014D+04 0.81388014D+04 0.12187144D+01  1  2  3  2  5  2       -2 -.766848523468D+02
0.130986789858D-01 0.000000000000D+00 0.000000000000D+00 0.498299967528D+00 0.000000000000D+00  5 2 -2 -11 11 21 2 0.43084851D-03 0.11177615D+00 0.11744057D+04 0.81388014D+04 0.81388014D+04 0.12187144D+01  1  2 15  2  5  2       -2 0.658034888880D+02
0.153486063279D-01 0.000000000000D+00 0.000000000000D+00 0.498299967528D+00 0.000000000000D+00  5 2 -2 -11 11 21 2 0.43084851D-03 0.23930705D+00 0.28957490D+04 0.91655787D+04 0.91655787D+04 0.12132739D+01  1  2 12  2  5  2       -2 0.739961007161D+01
0.126445069254D-02 0.000000000000D+00 0.000000000000D+00 0.498299967528D+00 0.000000000000D+00  5 2 21 -11 11 2 2 0.43084851D-03 0.23930705D+00 0.28957490D+04 0.91655787D+04 0.91655787D+04 0.12132739D+01  1  2 12  4  5  2       -2 0.607435218515D+01
  </mgrwgt>
  </event>
  <event npLO=' -1 ' npNLO=' 0 '>
  5     66 0.12487420E+02 0.91690927E+02 0.75467711E-02 0.11433196E+00
        2 -1    0    0  501    0 0.00000000E+00 0.00000000E+00 0.19701255E+04 0.19701255E+04 0.00000000E+00 0.0000E+00 0.9000E+01
       -2 -1    0    0    0  501 0.00000000E+00 0.00000000E+00 -.10668389E+01 0.10668389E+01 0.00000000E+00 0.0000E+00 0.9000E+01
       23  2    1    2    0    0 0.00000000E+00 0.00000000E+00 0.19690586E+04 0.19711923E+04 0.91690927E+02 0.0000E+00 0.0000E+00
      -13  1    3    3    0    0 -.13001337E+02 -.37954239E+02 0.14615030E+04 0.14620535E+04 0.00000000E+00 0.0000E+00 0.9000E+01
       13  1    3    3    0    0 0.13001337E+02 0.37954239E+02 0.50755564E+03 0.50913877E+03 0.00000000E+00 0.0000E+00 0.9000E+01
#aMCatNLO 1  0  0  2  1 0.11261856D+03 0.00000000D+00  -5  5  0 0.00000000D+00 0.00000000D+00 0.00000000D+00 0.00000000D+00 0.00000000D+00
  <mgrwgt>
 0.4319089794D+03    3    2    0
 0.458454634577023D+02 0.000000000000000D+00 0.000000000000000D+00 0.458454634577023D+02
 0.458454634577023D+02 0.000000000000000D+00 0.000000000000000D+00 -.458454634577023D+02
 0.458454634577023D+02 -.130013371246850D+02 -.379542385015755D+02 0.221866521221055D+02
 0.458454634577023D+02 0.130013371246850D+02 0.379542385015755D+02 -.221866521221055D+02
 0.000000000000000D+00 0.000000000000000D+00 0.000000000000000D+00 0.000000000000000D+00
 0.111995530158201D+03 0.000000000000000D+00 0.000000000000000D+00 0.111995530158201D+03
 0.757939652610571D+02 0.000000000000000D+00 0.000000000000000D+00 -.757939652610571D+02
 0.845275901347178D+02 -.181841825410795D+02 -.795110147520971D+02 0.221866521221055D+02
 0.282624444538710D+02 0.100552541707729D+02 0.143321351403748D+02 -.221866521221055D+02
 0.749994608306690D+02 0.812892837030664D+01 0.651788796117223D+02 0.362015648971435D+02
0.225706264234D-01 0.000000000000D+00 0.000000000000D+00 0.596017124549D+00 0.000000000000D+00  5 2 -2 -13 13 21 0 0.30309623D+00 0.16412906D-03 0.16095590D+04 0.84072261D+04 0.84072261D+04 0.12172209D+01  1  2  2  2  5  2       -2 0.439104483791D+03
-.122678526006D-02 0.000000000000D+00 -.866771484482D-04 0.596017124549D+00 0.000000000000D+00  5 2 -2 -13 13 21 2 0.30309623D+00 0.16412906D-03 0.16095590D+04 0.84072261D+04 0.84072261D+04 0.12172209D+01  1  2  3  2  5  2       -2 -.394918104680D+02
0.112044314661D-02 0.000000000000D+00 0.000000000000D+00 0.596017124549D+00 0.000000000000D+00  5 2 -2 -13 13 21 2 0.30309623D+00 0.16412906D-03 0.16095590D+04 0.84072261D+04 0.84072261D+04 0.12172209D+01  1  2 15  2  5  2       -2 0.322963060904D+02
  </mgrwgt>
  </event>
  <event npLO=' -1 ' npNLO=' 0 '>
  6     66 -.12487420E+02 0.86443552E+02 0.75467711E-02 0.11892363E+00
        2 -1    0    0  502    0 0.00000000E+00 0.00000000E+00 0.12515275E+04 0.12515275E+04 0.00000000E+00 0.0000E+00 0.9000E+01
       -2 -1    0    0    0  501 0.00000000E+00 0.00000000E+00 -.16656687E+02 0.16656687E+02 0.00000000E+00 0.0000E+00 0.9000E+01
       23  2    1    2    0    0 -.34218395E+01 -.45587823E+01 0.96040833E+02 0.12933994E+03 0.86443552E+02 0.0000E+00 0.0000E+00
      -11  1    3    3    0    0 0.80691761E+00 -.15468894E+02 0.11002281E+03 0.11110786E+03 0.00000000E+00 0.0000E+00 0.9000E+01
       11  1    3    3    0    0 -.42287572E+01 0.10910112E+02 -.13981981E+02 0.18232079E+02 0.00000000E+00 0.0000E+00 0.9000E+01
       21  1    1    2  502  501 0.34218395E+01 0.45587823E+01 0.11388300E+04 0.11388442E+04 0.00000000E+00 0.0000E+00 0.9000E+01
#aMCatNLO 2  0  0  1  2 0.57014711D+01 0.00000000D+00  -5  5  0 0.00000000D+00 0.00000000D+00 0.00000000D+00 0.00000000D+00 0.00000000D+00
  <mgrwgt>
 -.9128557833D+02    2    2    0
 0.432217759228455D+02 0.000000000000000D+00 0.000000000000000D+00 0.432217759228455D+02
 0.432217759228455D+02 0.000000000000000D+00 0.000000000000000D+00 -.432217759228455D+02
 0.432217759228455D+02 0.252959347327743D+01 -.131738405884542D+02 0.410873824298241D+02
 0.432217759228455D+02 -.252959347327743D+01 0.131738405884542D+02 -.410873824298241D+02
 0.000000000000000D+00 0.000000000000000D+00 0.000000000000000D+00 0.000000000000000D+00
 0.481058920016656D+03 0.000000000000000D+00 0.000000000000000D+00 0.481058920016656D+03
 0.433341975800218D+02 0.000000000000000D+00 0.000000000000000D+00 -.433341975800218D+02
 0.439102583740333D+02 0.806917607207158D+00 -.154688939331461D+02 0.410873824298241D+02
 0.427210243005364D+02 -.422875715058665D+01 0.109101116086762D+02 -.410873824298241D+02
 0.437761834922108D+03 0.342183954337949D+01 0.455878232446991D+01 0.437724722436634D+03
-.369381315962D+01 0.000000000000D+00 0.000000000000D+00 0.790941909393D-01 0.000000000000D+00  5 2 -2 -11 11 21 2 0.19304350D+00 0.25559192D-02 0.27045505D+03 0.75049791D+04 0.75049791D+04 0.12224723D+01  1  2 13  1  5  1        2 -.585010869365D+04
0.363515390458D+01 0.000000000000D+00 0.000000000000D+00 0.790941909393D-01 0.107341428718D+00  5 2 -2 -11 11 21 2 0.19254269D+00 0.25625673D-02 0.27045505D+03 0.75049791D+04 0.75049791D+04 0.12224723D+01  1  2  1  1  5  1        2 0.575882311532D+04
  </mgrwgt>
  </event>
  <event npLO=' -1 ' npNLO=' 0 '>
  5     66 0.12487420E+02 0.54700359E+02 0.75467711E-02 0.11806431E+00
        2 -1    0    0  501    0 0.00000000E+00 0.00000000E+00 0.25146499E+04 0.25146499E+04 0.00000000E+00 0.0000E+00 0.9000E+01
       -2 -1    0    0    0  501 0.00000000E+00 0.00000000E+00 -.81768873E+00 0.81768873E+00 0.00000000E+00 0.0000E+00 0.9000E+01
       23  2    1    2    0    0 0.00000000E+00 0.00000000E+00 0.25138322E+04 0.25154676E+04 0.90690702E+02 0.0000E+00 0.0000E+00
      -11  1    3    3    0    0 -.27695664E+02 -.35889682E+02 0.12280673E+04 0.12289037E+04 0.00000000E+00 0.0000E+00 0.9000E+01
       11  1    3    3    0    0 0.27695664E+02 0.35889682E+02 0.12857649E+04 0.12865639E+04 0.00000000E+00 0.0000E+00 0.9000E+01
#aMCatNLO 1  0  0  1  2 0.63728902D+01 0.00000000D+00  -5  5  0 0.00000000D+00 0.00000000D+00 0.00000000D+00 0.00000000D+00 0.00000000D+00
  <mgrwgt>
 0.1420788438D+04   11    2    0
 0.453453511899572D+02 0.000000000000000D+00 0.000000000000000D+00 0.453453511899572D+02
 0.453453511899572D+02 0.000000000000000D+00 0.000000000000000D+00 -.453453511899572D+02
 0.453453511899572D+02 -.276956641213314D+02 -.358896819430346D+02 -.104009299909214D+01
 0.453453511899572D+02 0.276956641213314D+02 0.358896819430346D+02 0.104009299909214D+01
 0.000000000000000D+00 0.000000000000000D+00 -.000000000000000D+00 0.000000000000000D+00
 0.514960993236781D+02 0.000000000000000D+00 0.000000000000000D+00 0.514960993236781D+02
 0.467813561397419D+02 0.000000000000000D+00 0.000000000000000D+00 -.467813561397419D+02
 0.466861064793582D+02 -.305314359157638D+02 -.353035715711147D+02 -.104009299909214D+01
 0.441843422060186D+02 0.249369793658563D+02 0.364598596107919D+02 0.104009299909214D+01
 0.740700677804313D+01 0.559445654990754D+01 -.115628803967719D+01 0.471474318393620D+01
0.367252240015D-01 0.000000000000D+00 0.000000000000D+00 0.545690880013D+00 0.000000000000D+00  5 2 -2 -11 11 21 0 0.38686922D+00 0.12579827D-03 0.20551191D+04 0.82248035D+04 0.82248035D+04 0.12182299D+01  1  2  2  1  5  1        2 0.520949665608D+03
-.204029005055D-02 0.000000000000D+00 -.141034530139D-03 0.545690880013D+00 0.000000000000D+00  5 2 -2 -11 11 21 2 0.38686922D+00 0.12579827D-03 0.20551191D+04 0.82248035D+04 0.82248035D+04 0.12182299D+01  1  2  3  1  5  1        2 -.470693573508D+02
0.213408541014D-02 0.000000000000D+00 0.000000000000D+00 0.545690880013D+00 0.000000000000D+00  5 2 -2 -11 11 21 2 0.38686922D+00 0.12579827D-03 0.20551191D+04 0.82248035D+04 0.82248035D+04 0.12182299D+01  1  2 15  1  5  1        2 0.449264024817D+02
0.626689553946D-01 0.000000000000D+00 0.000000000000D+00 0.545690880013D+00 0.000000000000D+00  5 2 -2 -11 11 21 2 0.45325831D+00 0.12579827D-03 0.23309255D+04 0.82574384D+04 0.82574384D+04 0.12180476D+01  1  2 12  1  5  1        2 0.743177068168D+03
-.787132804892D-01 0.000000000000D+00 0.000000000000D+00 0.545690880013D+00 0.000000000000D+00  5 2 -2 -11 11 21 2 0.38686922D+00 0.12579827D-03 0.20551191D+04 0.82248035D+04 0.82248035D+04 0.12182299D+01  1  2  4  1  5  1        2 -.165705857091D+04
-.163691381178D+00 0.000000000000D+00 -.281159768220D-01 0.545690880013D+00 0.000000000000D+00  5 2 -2 -11 11 21 2 0.44349545D+00 0.12579827D-03 0.20551191D+04 0.82248035D+04 0.82248035D+04 0.12182299D+01  1  2  5  1  5  1        2 -.262310083061D+04
0.166238937334D+00 0.000000000000D+00 0.278556817817D-01 0.545690880013D+00 0.000000000000D+00  5 2 -2 -11 11 21 2 0.38686922D+00 0.12579827D-03 0.20551191D+04 0.82248035D+04 0.82248035D+04 0.12182299D+01  1  2  6  1  5  1        2 0.431288351652D+04
0.100984372580D-01 0.000000000000D+00 0.000000000000D+00 0.545690880013D+00 0.133645238106D+00  5 2 -2 -11 11 21 2 0.43934505D+00 0.12978207D-03 0.23309255D+04 0.82574384D+04 0.82574384D+04 0.12180476D+01  1  2 11  1  5  1        2 0.130072518821D+03
0.149349485723D-02 0.000000000000D+00 0.000000000000D+00 0.545690880013D+00 0.000000000000D+00  5 21 -2 -11 11 -2 2 0.45325831D+00 0.12579827D-03 0.23309255D+04 0.82574384D+04 0.82574384D+04 0.12180476D+01  1  2 12  3  5  1        2 0.202832061821D+01
-.329457926026D-02 0.000000000000D+00 -.594189272684D-03 0.545690880013D+00 0.000000000000D+00  5 21 -2 -11 11 -2 2 0.44349545D+00 0.12579827D-03 0.20551191D+04 0.82248035D+04 0.82248035D+04 0.12182299D+01  1  2  5  3  5  1        2 -.638406797304D+01
0.231485274302D-03 0.000000000000D+00 0.000000000000D+00 0.545690880013D+00 0.273313282682D-02  5 21 -2 -11 11 -2 2 0.43934505D+00 0.12978207D-03 0.23309255D+04 0.82574384D+04 0.82574384D+04 0.12180476D+01  1  2 11  3  5  1        2 0.363772771232D+00
  </mgrwgt>
  </event>
  <event npLO=' -1 ' npNLO=' 0 '>
  5     66 0.12487420E+02 0.45889632E+02 0.75467711E-02 0.11812317E+00
        2 -1    0    0  501    0 0.00000000E+00 0.00000000E+00 0.97223502E+03 0.97223502E+03 0.00000000E+00 0.0000E+00 0.9000E+01
       -2 -1    0    0    0  501 0.00000000E+00 0.00000000E+00 -.20975942E+01 0.20975942E+01 0.00000000E+00 0.0000E+00 0.9000E+01
       23  2    1    2    0    0 0.00000000E+00 0.00000000E+00 0.97013742E+03 0.97433261E+03 0.90318426E+02 0.0000E+00 0.0000E+00
      -13  1    3    3    0    0 -.22152822E+02 -.26455468E+02 0.17079223E+03 0.17424301E+03 0.00000000E+00 0.0000E+00 0.9000E+01
       13  1    3    3    0    0 0.22152822E+02 0.26455468E+02 0.79934519E+03 0.80008960E+03 0.00000000E+00 0.0000E+00 0.9000E+01
#aMCatNLO 1  0  0  1  2 0.95056620D+01 0.00000000D+00  -5  5  0 0.00000000D+00 0.00000000D+00 0.00000000D+00 0.00000000D+00 0.00000000D+00
  <mgrwgt>
 0.9260297476D+03   11    2    0
 0.451592129843540D+02 0.000000000000000D+00 0.000000000000000D+00 0.451592129843540D+02
 0.451592129843540D+02 0.000000000000000D+00 0.000000000000000D+00 -.451592129843540D+02
 0.451592129843540D+02 -.221528215683802D+02 -.264554679426576D+02 -.291327175158922D+02
 0.451592129843540D+02 0.221528215683802D+02 0.264554679426576D+02 0.291327175158922D+02
 0.000000000000000D+00 -.000000000000000D+00 -.000000000000000D+00 0.000000000000000D+00
 0.487161916926800D+02 0.000000000000000D+00 0.000000000000000D+00 0.487161916926800D+02
 0.486212019895126D+02 0.000000000000000D+00 0.000000000000000D+00 -.486212019895126D+02
 0.427014504970205D+02 -.200857410085575D+02 -.239010805786238D+02 -.291327175158922D+02
 0.478699968587202D+02 0.243415015025245D+02 0.291601212959705D+02 0.291327175158922D+02
 0.676594632645187D+01 -.425576049396695D+01 -.525904071734665D+01 0.949897031673582D-01
0.154486914899D-01 0.000000000000D+00 0.000000000000D+00 0.635154879311D+00 0.000000000000D+00  5 2 -2 -13 13 21 0 0.14957462D+00 0.32270680D-03 0.11906393D+04 0.81574181D+04 0.81574181D+04 0.12186090D+01  1  2  2  1  5  1        2 0.405387032036D+03
-.782710365004D-03 0.000000000000D+00 -.593270430550D-04 0.635154879311D+00 0.000000000000D+00  5 2 -2 -13 13 21 2 0.14957462D+00 0.32270680D-03 0.11906393D+04 0.81574181D+04 0.81574181D+04 0.12186090D+01  1  2  3  1  5  1        2 -.349495859827D+02
0.812586121739D-03 0.000000000000D+00 0.000000000000D+00 0.635154879311D+00 0.000000000000D+00  5 2 -2 -13 13 21 2 0.14957462D+00 0.32270680D-03 0.11906393D+04 0.81574181D+04 0.81574181D+04 0.12186090D+01  1  2 15  1  5  1        2 0.316647709063D+02
0.175719249062D-01 0.000000000000D+00 0.000000000000D+00 0.635154879311D+00 0.000000000000D+00  5 2 -2 -13 13 21 2 0.17372575D+00 0.32270680D-03 0.14428576D+04 0.82031871D+04 0.82031871D+04 0.12183512D+01  1  2 12  1  5  1        2 0.559443445049D+03
-.174890720780D-01 0.000000000000D+00 0.000000000000D+00 0.635154879311D+00 0.000000000000D+00  5 2 -2 -13 13 21 2 0.14957462D+00 0.32270680D-03 0.11906393D+04 0.81574181D+04 0.81574181D+04 0.12186090D+01  1  2  4  1  5  1        2 -.681512329460D+03
-.668998540191D-01 0.000000000000D+00 -.172928778648D-01 0.635154879311D+00 0.000000000000D+00  5 2 -2 -13 13 21 2 0.17016463D+00 0.32270680D-03 0.11906393D+04 0.81574181D+04 0.81574181D+04 0.12186090D+01  1  2  5  1  5  1        2 -.328385173749D+04
0.687008040408D-01 0.000000000000D+00 0.171500472054D-01 0.635154879311D+00 0.000000000000D+00  5 2 -2 -13 13 21 2 0.14957462D+00 0.32270680D-03 0.11906393D+04 0.81574181D+04 0.81574181D+04 0.12186090D+01  1  2  6  1  5  1        2 0.396322959705D+04
0.159716664814D-06 0.000000000000D+00 0.000000000000D+00 0.635154879311D+00 0.110511103173D+00  5 2 -2 -13 13 21 2 0.16135591D+00 0.34744610D-03 0.14428576D+04 0.82031871D+04 0.82031871D+04 0.12183512D+01  1  2 11  1  5  1        2 0.509934750100D-02
0.400145529840D-03 0.000000000000D+00 0.000000000000D+00 0.635154879311D+00 0.000000000000D+00  5 21 -2 -13 13 -2 2 0.17372575D+00 0.32270680D-03 0.14428576D+04 0.82031871D+04 0.82031871D+04 0.12183512D+01  1  2 12  3  5  1        2 0.807821789569D+01
-.125691355269D-02 0.000000000000D+00 -.348493922213D-03 0.635154879311D+00 0.000000000000D+00  5 21 -2 -13 13 -2 2 0.17016463D+00 0.32270680D-03 0.11906393D+04 0.81574181D+04 0.81574181D+04 0.12186090D+01  1  2  5  3  5  1        2 -.414648631532D+02
0.444061784578D-08 0.000000000000D+00 0.000000000000D+00 0.635154879311D+00 0.156637740835D-02  5 21 -2 -13 13 -2 2 0.16135591D+00 0.34744610D-03 0.14428576D+04 0.82031871D+04 0.82031871D+04 0.12183512D+01  1  2 11  3  5  1        2 0.101408865044D-03
  </mgrwgt>
  </event>
  <event npLO=' -1 ' npNLO=' 0 '>
  5     66 0.12487420E+02 0.52402659E+02 0.75467711E-02 0.11807093E+00
        4 -1    0    0  501    0 0.00000000E+00 0.00000000E+00 0.30150690E+02 0.30150690E+02 0.00000000E+00 0.0000E+00 0.9000E+01
       -4 -1    0    0    0  501 0.00000000E+00 0.00000000E+00 -.67489814E+02 0.67489814E+02 0.00000000E+00 0.0000E+00 0.9000E+01
       23  2    1    2    0    0 0.00000000E+00 0.00000000E+00 -.37339124E+02 0.97640504E+02 0.90218943E+02 0.0000E+00 0.0000E+00
      -11  1    3    3    0    0 -.34225071E+02 -.33213311E+00 0.13131231E+02 0.36659174E+02 0.00000000E+00 0.0000E+00 0.9000E+01
       11  1    3    3    0    0 0.34225071E+02 0.33213311E+00 -.50470355E+02 0.60981330E+02 0.00000000E+00 0.0000E+00 0.9000E+01
#aMCatNLO 1  0  0  2  1 0.11026273D+02 0.00000000D+00  -5  5  0 0.00000000D+00 0.00000000D+00 0.00000000D+00 0.00000000D+00 0.00000000D+00
  <mgrwgt>
 0.1259887648D+03    9    2    0
 0.451094716539547D+02 0.000000000000000D+00 0.000000000000000D+00 0.451094716539547D+02
 0.451094716539547D+02 0.000000000000000D+00 0.000000000000000D+00 -.451094716539547D+02
 0.451094716539547D+02 -.342250714421067D+02 -.332133113411140D+00 0.293836452006318D+02
 0.451094716539547D+02 0.342250714421067D+02 0.332133113411140D+00 -.293836452006318D+02
 0.000000000000000D+00 -.000000000000000D+00 -.000000000000000D+00 -.000000000000000D+00
 0.467211257764390D+02 0.000000000000000D+00 0.000000000000000D+00 0.467211257764390D+02
 0.668847078575929D+02 0.000000000000000D+00 0.000000000000000D+00 -.668847078575929D+02
 0.422129887607804D+02 -.301800324078375D+02 0.277551053016133D+01 0.293836452006318D+02
 0.486237775597873D+02 0.385670774973379D+02 0.366792478404214D+01 -.293836452006318D+02
 0.227690673134643D+02 -.838704508950043D+01 -.644343531420347D+01 -.201635820811539D+02
0.312431082255D-01 0.000000000000D+00 0.000000000000D+00 0.500178731042D+00 0.000000000000D+00  5 4 -4 -11 11 21 0 0.46385676D-02 0.10383048D-01 0.11714658D+04 0.81394577D+04 0.81394577D+04 0.12187107D+01  1  2  2  2  5  2       -4 0.113830249879D+03
-.157486596776D-02 0.000000000000D+00 -.119981762085D-03 0.500178731042D+00 0.000000000000D+00  5 4 -4 -11 11 21 2 0.46385676D-02 0.10383048D-01 0.11714658D+04 0.81394577D+04 0.81394577D+04 0.12187107D+01  1  2  3  2  5  2       -4 -.978070602521D+01
0.167665250874D-02 0.000000000000D+00 0.000000000000D+00 0.500178731042D+00 0.000000000000D+00  5 4 -4 -11 11 21 2 0.46385676D-02 0.10383048D-01 0.11714658D+04 0.81394577D+04 0.81394577D+04 0.12187107D+01  1  2 15  2  5  2       -4 0.907293415204D+01
0.721955375497D-01 0.000000000000D+00 0.000000000000D+00 0.500178731042D+00 0.000000000000D+00  5 4 -4 -11 11 21 2 0.46385676D-02 0.15945184D-01 0.15850312D+04 0.82513181D+04 0.82513181D+04 0.12180817D+01  1  2 12  2  5  2       -4 0.186109219244D+03
-.699827671747D-01 0.000000000000D+00 0.000000000000D+00 0.500178731042D+00 0.000000000000D+00  5 4 -4 -11 11 21 2 0.46385676D-02 0.10383048D-01 0.11714658D+04 0.81394577D+04 0.81394577D+04 0.12187107D+01  1  2  4  2  5  2       -4 -.378700437356D+03
-.763480940834D-01 0.000000000000D+00 -.115209983197D-01 0.500178731042D+00 0.000000000000D+00  5 4 -4 -11 11 21 2 0.46385676D-02 0.15867235D-01 0.11714658D+04 0.81394577D+04 0.81394577D+04 0.12187107D+01  1  2  5  2  5  2       -4 -.256391517775D+03
0.753222941710D-01 0.000000000000D+00 0.105573405248D-01 0.500178731042D+00 0.000000000000D+00  5 4 -4 -11 11 21 2 0.46385676D-02 0.10383048D-01 0.11714658D+04 0.81394577D+04 0.81394577D+04 0.12187107D+01  1  2  6  2  5  2       -4 0.518337813043D+03
0.361905085417D-02 0.000000000000D+00 0.000000000000D+00 0.500178731042D+00 0.000000000000D+00  5 4 21 -11 11 4 2 0.46385676D-02 0.15945184D-01 0.15850312D+04 0.82513181D+04 0.82513181D+04 0.12180817D+01  1  2 12  4  5  2       -4 0.227657483820D+03
-.336952298279D-02 0.000000000000D+00 -.572604159028D-03 0.500178731042D+00 0.000000000000D+00  5 4 21 -11 11 4 2 0.46385676D-02 0.15867235D-01 0.11714658D+04 0.81394577D+04 0.81394577D+04 0.12187107D+01  1  2  5  4  5  2       -4 -.284146274171D+03
  </mgrwgt>
  </event>
  <event npLO=' -1 ' npNLO=' 0 '>
  5     66 0.12487420E+02 0.90796217E+02 0.75467711E-02 0.11573642E+00
        2 -1    0    0  501    0 0.00000000E+00 0.00000000E+00 0.14675349E+03 0.14675349E+03 0.00000000E+00 0.0000E+00 0.9000E+01
       -2 -1    0    0    0  501 0.00000000E+00 0.00000000E+00 -.14043879E+02 0.14043879E+02 0.00000000E+00 0.0000E+00 0.9000E+01
       23  2    1    2    0    0 0.00000000E+00 0.00000000E+00 0.13270961E+03 0.16079737E+03 0.90796217E+02 0.0000E+00 0.0000E+00
      -13  1    3    3    0    0 0.35463698E+01 -.26280740E+01 0.14637257E+03 0.14643911E+03 0.00000000E+00 0.0000E+00 0.9000E+01
       13  1    3    3    0    0 -.35463698E+01 0.26280740E+01 -.13662953E+02 0.14358266E+02 0.00000000E+00 0.0000E+00 0.9000E+01
#aMCatNLO 1  0  0  1  1 0.97003627D+02 0.00000000D+00  -5  5  0 0.00000000D+00 0.00000000D+00 0.00000000D+00 0.00000000D+00 0.00000000D+00
  <mgrwgt>
 0.5848479283D+03    3    2    0
 0.453981084988013D+02 0.000000000000000D+00 0.000000000000000D+00 0.453981084988013D+02
 0.453981084988013D+02 0.000000000000000D+00 0.000000000000000D+00 -.453981084988013D+02
 0.453981084988013D+02 0.354636982444795D+01 -.262807400949713D+01 0.451830138806365D+02
 0.453981084988013D+02 -.354636982444795D+01 0.262807400949713D+01 -.451830138806365D+02
 0.000000000000000D+00 0.000000000000000D+00 -.000000000000000D+00 -.000000000000000D+00
 0.638008313061966D+02 0.000000000000000D+00 0.000000000000000D+00 0.638008313061966D+02
 0.105131243651518D+03 0.000000000000000D+00 0.000000000000000D+00 -.105131243651518D+03
 0.499603008799045D+02 -.329617066991013D+01 0.210632898567062D+02 0.451830138806365D+02
 0.538500500991493D+02 -.106680232645755D+02 0.272858284090768D+02 -.451830138806365D+02
 0.651217239786611D+02 0.139641939344856D+02 -.483491182657830D+02 -.413304123453218D+02
0.255712782953D-01 0.000000000000D+00 0.000000000000D+00 0.100194230807D+01 0.000000000000D+00  5 2 -2 -13 13 21 0 0.22577460D-01 0.21605967D-02 0.19483512D+02 0.82439530D+04 0.82439530D+04 0.12181228D+01  1  2  2  1  5  1        2 0.396919549343D+03
0.796209930190D-02 0.000000000000D+00 -.982004417261D-04 0.100194230807D+01 0.000000000000D+00  5 2 -2 -13 13 21 2 0.22577460D-01 0.21605967D-02 0.19483512D+02 0.82439530D+04 0.82439530D+04 0.12181228D+01  1  2  3  1  5  1        2 0.169704968428D+03
0.791220327493D-03 0.000000000000D+00 0.000000000000D+00 0.100194230807D+01 0.000000000000D+00  5 2 -2 -13 13 21 2 0.22577460D-01 0.21605967D-02 0.19483512D+02 0.82439530D+04 0.82439530D+04 0.12181228D+01  1  2 15  1  5  1        2 0.182234105271D+02
  </mgrwgt>
  </event>
  <event npLO=' -1 ' npNLO=' 0 '>
  5     66 0.12487420E+02 0.41118721E+02 0.75467711E-02 0.11772452E+00
        2 -1    0    0  501    0 0.00000000E+00 0.00000000E+00 0.33957518E+03 0.33957518E+03 0.00000000E+00 0.0000E+00 0.9000E+01
       -2 -1    0    0    0  501 0.00000000E+00 0.00000000E+00 -.59324659E+01 0.59324659E+01 0.00000000E+00 0.0000E+00 0.9000E+01
       23  2    1    2    0    0 0.00000000E+00 0.00000000E+00 0.33364271E+03 0.34550764E+03 0.89766768E+02 0.0000E+00 0.0000E+00
      -13  1    3    3    0    0 0.80118806E+01 -.21056122E+02 0.17406413E+02 0.28469874E+02 0.00000000E+00 0.0000E+00 0.9000E+01
       13  1    3    3    0    0 -.80118806E+01 0.21056122E+02 0.31623630E+03 0.31703777E+03 0.00000000E+00 0.0000E+00 0.9000E+01
#aMCatNLO 1  0  0  1  2 0.50379248D+02 0.00000000D+00  -5  5  0 0.00000000D+00 0.00000000D+00 0.00000000D+00 0.00000000D+00 0.00000000D+00
  <mgrwgt>
 0.3052770588D+03    6    2    0
 0.448833842065285D+02 0.000000000000000D+00 0.000000000000000D+00 0.448833842065285D+02
 0.448833842065285D+02 0.000000000000000D+00 0.000000000000000D+00 -.448833842065285D+02
 0.448833842065285D+02 0.801188060395800D+01 -.210561224410568D+02 -.388196812810976D+02
 0.448833842065285D+02 -.801188060395800D+01 0.210561224410568D+02 0.388196812810976D+02
 0.000000000000000D+00 -.000000000000000D+00 0.000000000000000D+00 -.000000000000000D+00
 0.511590979857762D+02 0.000000000000000D+00 0.000000000000000D+00 0.511590979857762D+02
 0.731676295926115D+02 0.000000000000000D+00 0.000000000000000D+00 -.731676295926115D+02
 0.517354335543228D+02 0.157105977084267D+02 -.303770398480782D+02 -.388196812810976D+02
 0.408867760331694D+02 -.117759909448236D+01 0.127817862598792D+02 0.388196812810976D+02
 0.317045179908954D+02 -.145329986139443D+02 0.175952535881991D+02 -.220085316068353D+02
0.158857978776D-01 0.000000000000D+00 0.000000000000D+00 0.478152541941D+00 0.000000000000D+00  5 2 -2 -13 13 21 0 0.52242335D-01 0.91268707D-03 0.50755052D+03 0.80580727D+04 0.80580727D+04 0.12191744D+01  1  2  2  1  5  1        2 0.330127201121D+03
-.372748595139D-03 0.000000000000D+00 -.610056466768D-04 0.478152541941D+00 0.000000000000D+00  5 2 -2 -13 13 21 2 0.52242335D-01 0.91268707D-03 0.50755052D+03 0.80580727D+04 0.80580727D+04 0.12191744D+01  1  2  3  1  5  1        2 -.167238973747D+02
0.538680509716D-03 0.000000000000D+00 0.000000000000D+00 0.478152541941D+00 0.000000000000D+00  5 2 -2 -13 13 21 2 0.52242335D-01 0.91268707D-03 0.50755052D+03 0.80580727D+04 0.80580727D+04 0.12191744D+01  1  2 15  1  5  1        2 0.166393066890D+02
0.199531483618D-02 0.000000000000D+00 0.000000000000D+00 0.478152541941D+00 0.000000000000D+00  5 2 -2 -13 13 21 2 0.97071838D-01 0.91268707D-03 0.12199727D+04 0.85788737D+04 0.85788737D+04 0.12162935D+01  1  2 12  1  5  1        2 0.315977562100D+02
-.193031836926D-02 0.000000000000D+00 0.000000000000D+00 0.478152541941D+00 0.000000000000D+00  5 2 -2 -13 13 21 2 0.52242335D-01 0.91268707D-03 0.50755052D+03 0.80580727D+04 0.80580727D+04 0.12191744D+01  1  2  4  1  5  1        2 -.596256199625D+02
0.134753513083D-03 0.000000000000D+00 0.000000000000D+00 0.478152541941D+00 0.000000000000D+00  5 21 -2 -13 13 -2 2 0.97071838D-01 0.91268707D-03 0.12199727D+04 0.85788737D+04 0.85788737D+04 0.12162935D+01  1  2 12  3  5  1        2 0.326231213105D+01
  </mgrwgt>
  </event>
  <event npLO=' -1 ' npNLO=' 0 '>
  5     66 0.12487420E+02 0.40964257E+02 0.75467711E-02 0.11556644E+00
        2 -1    0    0  501    0 0.00000000E+00 0.00000000E+00 0.46495911E+01 0.46495911E+01 0.00000000E+00 0.0000E+00 0.9000E+01
       -2 -1    0    0    0  501 0.00000000E+00 0.00000000E+00 -.43414934E+03 0.43414934E+03 0.00000000E+00 0.0000E+00 0.9000E+01
       23  2    1    2    0    0 0.00000000E+00 0.00000000E+00 -.42949975E+03 0.43879893E+03 0.89858041E+02 0.0000E+00 0.0000E+00
      -13  1    3    3    0    0 -.15116752E+02 -.25501620E+02 -.49889281E+02 0.58032656E+02 0.00000000E+00 0.0000E+00 0.9000E+01
       13  1    3    3    0    0 0.15116752E+02 0.25501620E+02 -.37961047E+03 0.38076627E+03 0.00000000E+00 0.0000E+00 0.9000E+01
#aMCatNLO 1  0  0  2  1 0.58561640D+02 0.00000000D+00  -5  5  0 0.00000000D+00 0.00000000D+00 0.00000000D+00 0.00000000D+00 0.00000000D+00
  <mgrwgt>
 0.3798629560D+03    7    2    0
 0.449290205656377D+02 0.000000000000000D+00 0.000000000000000D+00 0.449290205656377D+02
 0.449290205656377D+02 0.000000000000000D+00 0.000000000000000D+00 -.449290205656377D+02
 0.449290205656377D+02 -.151167520333314D+02 -.255016199233756D+02 0.337604513926274D+02
 0.449290205656377D+02 0.151167520333314D+02 0.255016199233756D+02 -.337604513926274D+02
 0.000000000000000D+00 -.000000000000000D+00 0.000000000000000D+00 -.000000000000000D+00
 0.593609717323797D+02 0.000000000000000D+00 0.000000000000000D+00 0.593609717323797D+02
 0.157588282878955D+03 0.000000000000000D+00 0.000000000000000D+00 -.157588282878955D+03
 0.567171223163586D+02 0.496432886403203D+01 -.453036347829240D+02 0.337604513926274D+02
 0.481296126004729D+02 0.335012955863137D+02 0.737256569154034D+01 -.337604513926274D+02
 0.112102519694503D+03 -.384656244503458D+02 0.379310690913837D+02 -.982273111465752D+02
0.748777590942D-01 0.000000000000D+00 0.000000000000D+00 0.413733115124D+00 0.000000000000D+00  5 2 -2 -13 13 21 0 0.71532170D-03 0.66792206D-01 0.87884881D+03 0.80744676D+04 0.80744676D+04 0.12190806D+01  1  2  2  2  5  2       -2 0.410639216626D+03
-.328552862304D-02 0.000000000000D+00 -.287550310689D-03 0.413733115124D+00 0.000000000000D+00  5 2 -2 -13 13 21 2 0.71532170D-03 0.66792206D-01 0.87884881D+03 0.80744676D+04 0.80744676D+04 0.12190806D+01  1  2  3  2  5  2       -2 -.319757558396D+02
0.269315541969D-02 0.000000000000D+00 0.000000000000D+00 0.413733115124D+00 0.000000000000D+00  5 2 -2 -13 13 21 2 0.71532170D-03 0.66792206D-01 0.87884881D+03 0.80744676D+04 0.80744676D+04 0.12190806D+01  1  2 15  2  5  2       -2 0.219499648859D+02
0.262941560328D-01 0.000000000000D+00 0.000000000000D+00 0.413733115124D+00 0.000000000000D+00  5 2 -2 -13 13 21 2 0.71532170D-03 0.30952577D+00 0.44822822D+04 0.10992838D+05 0.10992838D+05 0.12050937D+01  1  2 12  2  5  2       -2 0.190143260974D+01
-.116528436350D-01 0.000000000000D+00 -.233036736838D-01 0.413733115124D+00 0.000000000000D+00  5 2 -2 -13 13 21 2 0.71532170D-03 0.26588112D+00 0.87884881D+03 0.80744676D+04 0.80744676D+04 0.12190806D+01  1  2  5  2  5  2       -2 -.100340868910D+02
0.488788923437D-02 0.000000000000D+00 0.000000000000D+00 0.413733115124D+00 0.000000000000D+00  5 2 21 -13 13 2 2 0.71532170D-03 0.30952577D+00 0.44822822D+04 0.10992838D+05 0.10992838D+05 0.12050937D+01  1  2 12  4  5  2       -2 0.431004078058D+01
-.162929612557D-02 0.000000000000D+00 -.383953131393D-02 0.413733115124D+00 0.000000000000D+00  5 2 21 -13 13 2 2 0.71532170D-03 0.26588112D+00 0.87884881D+03 0.80744676D+04 0.80744676D+04 0.12190806D+01  1  2  5  4  5  2       -2 -.169278561759D+02
  </mgrwgt>
  </event>
  <event npLO=' -1 ' npNLO=' 0 '>
  5     66 0.12487420E+02 0.92134964E+02 0.75467711E-02 0.10744877E+00
        4 -1    0    0  501    0 0.00000000E+00 0.00000000E+00 0.22767644E+02 0.22767644E+02 0.00000000E+00 0.0000E+00 0.9000E+01
       -4 -1    0    0    0  501 0.00000000E+00 0.00000000E+00 -.93211793E+02 0.93211793E+02 0.00000000E+00 0.0000E+00 0.9000E+01
       23  2    1    2    0    0 0.00000000E+00 0.00000000E+00 -.70444149E+02 0.11597944E+03 0.92134964E+02 0.0000E+00 0.0000E+00
      -11  1    3    3    0    0 0.19029999E+02 0.33090529E+02 -.67685652E+02 0.77707603E+02 0.00000000E+00 0.0000E+00 0.9000E+01
       11  1    3    3    0    0 -.19029999E+02 -.33090529E+02 -.27584965E+01 0.38271834E+02 0.00000000E+00 0.0000E+00 0.9000E+01
#aMCatNLO 1  0  0  2  2 0.34968184D+03 0.00000000D+00  -5  5  0 0.00000000D+00 0.00000000D+00 0.00000000D+00 0.00000000D+00 0.00000000D+00
  <mgrwgt>
 0.1314016097D+03    3    2    0
 0.460674821324790D+02 0.000000000000000D+00 0.000000000000000D+00 0.460674821324790D+02
 0.460674821324790D+02 0.000000000000000D+00 0.000000000000000D+00 -.460674821324790D+02
 0.460674821324790D+02 0.190299988535342D+02 0.330905292260514D+02 -.257893181220559D+02
 0.460674821324790D+02 -.190299988535342D+02 -.330905292260514D+02 0.257893181220559D+02
 0.000000000000000D+00 0.000000000000000D+00 0.000000000000000D+00 0.000000000000000D+00
 0.392616362057051D+03 0.000000000000000D+00 0.000000000000000D+00 0.392616362057051D+03
 0.105583629331208D+03 0.000000000000000D+00 0.000000000000000D+00 -.105583629331208D+03
 0.258619503395009D+02 -.135509108648573D+01 -.138393435882583D+01 -.257893181220559D+02
 0.149072108689277D+03 -.743333423257600D+02 -.126617371946145D+03 0.257893181220559D+02
 0.323265932359481D+03 0.756884334122457D+02 0.128001306304971D+03 0.287032732725844D+03
0.411410057687D-01 0.000000000000D+00 0.000000000000D+00 0.654385080602D+00 0.000000000000D+00  5 4 -4 -11 11 21 0 0.35027145D-02 0.14340276D-01 0.14571240D+04 0.84888516D+04 0.84888516D+04 0.12167773D+01  1  2  2  2  5  2       -4 0.134112891502D+03
-.218739424776D-02 0.000000000000D+00 -.157992294827D-03 0.654385080602D+00 0.000000000000D+00  5 4 -4 -11 11 21 2 0.35027145D-02 0.14340276D-01 0.14571240D+04 0.84888516D+04 0.84888516D+04 0.12167773D+01  1  2  3  2  5  2       -4 -.119008935716D+02
0.190405450815D-02 0.000000000000D+00 0.000000000000D+00 0.654385080602D+00 0.000000000000D+00  5 4 -4 -11 11 21 2 0.35027145D-02 0.14340276D-01 0.14571240D+04 0.84888516D+04 0.84888516D+04 0.12167773D+01  1  2 15  2  5  2       -4 0.918961175968D+01
  </mgrwgt>
  </event>
  <event npLO=' -1 ' npNLO=' 0 '>
  5     66 0.12487420E+02 0.64409139E+02 0.75467711E-02 0.11820381E+00
        2 -1    0    0  501    0 0.00000000E+00 0.00000000E+00 0.31473426E+03 0.31473426E+03 0.00000000E+00 0.0000E+00 0.9000E+01
       -2 -1    0    0    0  501 0.00000000E+00 0.00000000E+00 -.64538976E+01 0.64538976E+01 0.00000000E+00 0.0000E+00 0.9000E+01
       23  2    1    2    0    0 0.00000000E+00 0.00000000E+00 0.30828036E+03 0.32118815E+03 0.90139063E+02 0.0000E+00 0.0000E+00
      -11  1    3    3    0    0 0.28175615E+02 0.35129170E+02 0.16065107E+03 0.16684331E+03 0.00000000E+00 0.0000E+00 0.9000E+01
       11  1    3    3    0    0 -.28175615E+02 -.35129170E+02 0.14762929E+03 0.15434484E+03 0.00000000E+00 0.0000E+00 0.9000E+01
#aMCatNLO 1  0  0  2  1 0.71512586D+01 0.00000000D+00  -5  5  0 0.00000000D+00 0.00000000D+00 0.00000000D+00 0.00000000D+00 0.00000000D+00
  <mgrwgt>
 0.5583576307D+03    8    2    0
 0.450695314858826D+02 0.000000000000000D+00 0.000000000000000D+00 0.450695314858826D+02
 0.450695314858826D+02 0.000000000000000D+00 0.000000000000000D+00 -.450695314858826D+02
 0.450695314858826D+02 0.281756154293090D+02 0.351291699614252D+02 0.182723325220178D+01
 0.450695314858826D+02 -.281756154293090D+02 -.351291699614252D+02 -.182723325220178D+01
 0.000000000000000D+00 0.000000000000000D+00 0.000000000000000D+00 0.000000000000000D+00
 0.486163112294983D+02 0.000000000000000D+00 0.000000000000000D+00 0.486163112294983D+02
 0.453988915623069D+02 0.000000000000000D+00 0.000000000000000D+00 -.453988915623069D+02
 0.440936656323032D+02 0.278541079226515D+02 0.341329934135388D+02 0.182723325220178D+01
 0.460702479511234D+02 -.285042501596818D+02 -.361474298914089D+02 -.182723325220178D+01
 0.385128920837869D+01 0.650142237030255D+00 0.201443647787003D+01 0.321741966719141D+01
0.148766140378D-01 0.000000000000D+00 0.000000000000D+00 0.354624885625D+00 0.000000000000D+00  5 2 -2 -11 11 21 0 0.48420655D-01 0.99290733D-03 0.20279239D+04 0.81250507D+04 0.81250507D+04 0.12187924D+01  1  2  2  2  5  2       -2 0.298598590765D+03
-.826477877808D-03 0.000000000000D+00 -.571301150075D-04 0.354624885625D+00 0.000000000000D+00  5 2 -2 -11 11 21 2 0.48420655D-01 0.99290733D-03 0.20279239D+04 0.81250507D+04 0.81250507D+04 0.12187924D+01  1  2  3  2  5  2       -2 -.270060801673D+02
0.744446096590D-03 0.000000000000D+00 0.000000000000D+00 0.354624885625D+00 0.000000000000D+00  5 2 -2 -11 11 21 2 0.48420655D-01 0.99290733D-03 0.20279239D+04 0.81250507D+04 0.81250507D+04 0.12187924D+01  1  2 15  2  5  2       -2 0.221960855559D+02
0.107840294365D-01 0.000000000000D+00 0.000000000000D+00 0.354624885625D+00 0.000000000000D+00  5 2 -2 -11 11 21 2 0.48420655D-01 0.10788719D-02 0.21255115D+04 0.81295313D+04 0.81295313D+04 0.12187670D+01  1  2 12  2  5  2       -2 0.286714148033D+03
-.367166405719D-02 0.000000000000D+00 0.000000000000D+00 0.354624885625D+00 0.000000000000D+00  5 2 -2 -11 11 21 2 0.48420655D-01 0.99290733D-03 0.20279239D+04 0.81250507D+04 0.81250507D+04 0.12187924D+01  1  2  4  2  5  2       -2 -.109472760915D+03
0.127451841861D-03 0.000000000000D+00 0.000000000000D+00 0.354624885625D+00 0.629048823612D+00  5 2 -2 -11 11 21 2 0.52231154D-01 0.10001633D-02 0.21255115D+04 0.81295313D+04 0.81295313D+04 0.12187670D+01  1  2 11  2  5  2       -2 0.347169467124D+01
0.158555909765D-03 0.000000000000D+00 0.000000000000D+00 0.354624885625D+00 0.000000000000D+00  5 2 21 -11 11 2 2 0.48420655D-01 0.10788719D-02 0.21255115D+04 0.81295313D+04 0.81295313D+04 0.12187670D+01  1  2 12  4  5  2       -2 0.805964399377D+02
0.621387788773D-05 0.000000000000D+00 0.000000000000D+00 0.354624885625D+00 0.886259389292D-03  5 2 21 -11 11 2 2 0.52231154D-01 0.10001633D-02 0.21255115D+04 0.81295313D+04 0.81295313D+04 0.12187670D+01  1  2 11  4  5  2       -2 0.325951278724D+01
  </mgrwgt>
  </event>
  <event npLO=' -1 ' npNLO=' 0 '>
  5     66 0.12487420E+02 0.36605296E+02 0.75467711E-02 0.11710770E+00
        4 -1    0    0  501    0 0.00000000E+00 0.00000000E+00 0.35920547E+03 0.35920547E+03 0.00000000E+00 0.0000E+00 0.9000E+01
       -4 -1    0    0    0  501 0.00000000E+00 0.00000000E+00 -.55533409E+01 0.55533409E+01 0.00000000E+00 0.0000E+00 0.9000E+01
       23  2    1    2    0    0 0.00000000E+00 0.00000000E+00 0.35365213E+03 0.36475881E+03 0.89326153E+02 0.0000E+00 0.0000E+00
      -11  1    3    3    0    0 -.60772099E+01 -.39934058E+02 0.25464003E+03 0.25782399E+03 0.00000000E+00 0.0000E+00 0.9000E+01
       11  1    3    3    0    0 0.60772099E+01 0.39934058E+02 0.99012094E+02 0.10693482E+03 0.00000000E+00 0.0000E+00 0.9000E+01
#aMCatNLO 1  0  0  2  1 0.57905758D+02 0.00000000D+00  -5  5  0 0.00000000D+00 0.00000000D+00 0.00000000D+00 0.00000000D+00 0.00000000D+00
  <mgrwgt>
 0.3770798540D+02    5    2    0
 0.446630766435261D+02 0.000000000000000D+00 0.000000000000000D+00 0.446630766435261D+02
 0.446630766435261D+02 0.000000000000000D+00 0.000000000000000D+00 -.446630766435261D+02
 0.446630766435261D+02 -.607720986121630D+01 -.399340583980210D+02 0.190559417356286D+02
 0.446630766435261D+02 0.607720986121630D+01 0.399340583980210D+02 -.190559417356286D+02
 0.000000000000000D+00 -.000000000000000D+00 0.000000000000000D+00 0.000000000000000D+00
 0.735427722399513D+02 0.000000000000000D+00 0.000000000000000D+00 0.735427722399513D+02
 0.598893945239428D+02 0.000000000000000D+00 0.000000000000000D+00 -.598893945239428D+02
 0.620258475464477D+02 0.288325285933018D+00 -.590253650302392D+02 0.190559417356286D+02
 0.338913914751102D+02 0.107641183812086D+02 0.258772343221378D+02 -.190559417356286D+02
 0.375149277423363D+02 -.110524436671416D+02 0.331481307081014D+02 0.136533777160085D+02
0.188532018690D-01 0.000000000000D+00 0.000000000000D+00 0.211171402134D+00 0.000000000000D+00  5 4 -4 -11 11 21 0 0.55262380D-01 0.85436014D-03 0.16316615D+04 0.79791617D+04 0.79791617D+04 0.12196291D+01  1  2  2  2  5  2       -4 0.348851323850D+02
-.103454523503D-02 0.000000000000D+00 -.724012593391D-04 0.211171402134D+00 0.000000000000D+00  5 4 -4 -11 11 21 2 0.55262380D-01 0.85436014D-03 0.16316615D+04 0.79791617D+04 0.79791617D+04 0.12196291D+01  1  2  3  2  5  2       -4 -.316377669121D+01
0.922571895676D-03 0.000000000000D+00 0.000000000000D+00 0.211171402134D+00 0.000000000000D+00  5 4 -4 -11 11 21 2 0.55262380D-01 0.85436014D-03 0.16316615D+04 0.79791617D+04 0.79791617D+04 0.12196291D+01  1  2 15  2  5  2       -4 0.253928262524D+01
0.127295259171D-02 0.000000000000D+00 0.000000000000D+00 0.211171402134D+00 0.000000000000D+00  5 4 -4 -11 11 21 2 0.55262380D-01 0.18863993D-02 0.37206929D+04 0.92001167D+04 0.92001167D+04 0.12131029D+01  1  2 12  2  5  2       -4 0.110974546040D+01
0.109315196414D-03 0.000000000000D+00 0.000000000000D+00 0.211171402134D+00 0.000000000000D+00  5 4 21 -11 11 4 2 0.55262380D-01 0.18863993D-02 0.37206929D+04 0.92001167D+04 0.92001167D+04 0.12131029D+01  1  2 12  4  5  2       -4 0.233760161614D+01
  </mgrwgt>
  </event>
  <event npLO=' -1 ' npNLO=' 0 '>
  5     66 0.12487420E+02 0.51149082E+02 0.75467711E-02 0.11772135E+00
        2 -1    0    0  501    0 0.00000000E+00 0.00000000E+00 0.61851485E+03 0.61851485E+03 0.00000000E+00 0.0000E+00 0.9000E+01
       -2 -1    0    0    0  501 0.00000000E+00 0.00000000E+00 -.34428648E+01 0.34428648E+01 0.00000000E+00 0.0000E+00 0.9000E+01
       23  2    1    2    0    0 0.00000000E+00 0.00000000E+00 0.61507199E+03 0.62195772E+03 0.92292210E+02 0.0000E+00 0.0000E+00
      -11  1    3    3    0    0 0.40087892E+02 -.10772484E+02 0.44338631E+03 0.44532517E+03 0.00000000E+00 0.0000E+00 0.9000E+01
       11  1    3    3    0    0 -.40087892E+02 0.10772484E+02 0.17168568E+03 0.17663255E+03 0.00000000E+00 0.0000E+00 0.9000E+01
#aMCatNLO 1  0  0  2  1 0.80842968D+01 0.00000000D+00  -5  5  0 0.00000000D+00 0.00000000D+00 0.00000000D+00 0.00000000D+00 0.00000000D+00
  <mgrwgt>
 0.3447744353D+03   11    2    0
 0.461461051926948D+02 0.000000000000000D+00 0.000000000000000D+00 0.461461051926948D+02
 0.461461051926948D+02 0.000000000000000D+00 0.000000000000000D+00 -.461461051926948D+02
 0.461461051926948D+02 0.400878923472224D+02 -.107724836697146D+02 0.201588071868970D+02
 0.461461051926948D+02 -.400878923472224D+02 0.107724836697146D+02 -.201588071868970D+02
 0.000000000000000D+00 -.000000000000000D+00 0.000000000000000D+00 -.000000000000000D+00
 0.467372054553039D+02 0.000000000000000D+00 0.000000000000000D+00 0.467372054553039D+02
 0.846680238888692D+02 0.000000000000000D+00 0.000000000000000D+00 -.846680238888692D+02
 0.490060843668479D+02 0.423444417550149D+02 -.142185459955748D+02 0.201588071868970D+02
 0.436326923823182D+02 -.379587737905397D+02 0.752102583762052D+01 -.201588071868970D+02
 0.387664525950071D+02 -.438566796447520D+01 0.669752015795431D+01 -.379308184335653D+02
0.122554118230D-01 0.000000000000D+00 0.000000000000D+00 0.370538986329D+00 0.000000000000D+00  5 2 -2 -11 11 21 0 0.95156131D-01 0.52967151D-03 0.17230855D+04 0.85178521D+04 0.85178521D+04 0.12166208D+01  1  2  2  2  5  2       -2 0.281896345612D+03
-.671576444477D-03 0.000000000000D+00 -.470640083243D-04 0.370538986329D+00 0.000000000000D+00  5 2 -2 -11 11 21 2 0.95156131D-01 0.52967151D-03 0.17230855D+04 0.85178521D+04 0.85178521D+04 0.12166208D+01  1  2  3  2  5  2       -2 -.254254554855D+02
0.601789172984D-03 0.000000000000D+00 0.000000000000D+00 0.370538986329D+00 0.000000000000D+00  5 2 -2 -11 11 21 2 0.95156131D-01 0.52967151D-03 0.17230855D+04 0.85178521D+04 0.85178521D+04 0.12166208D+01  1  2 15  2  5  2       -2 0.204887932240D+02
0.965179398029D-01 0.000000000000D+00 0.000000000000D+00 0.370538986329D+00 0.000000000000D+00  5 2 -2 -11 11 21 2 0.95156131D-01 0.98428003D-03 0.20871304D+04 0.85819430D+04 0.85819430D+04 0.12162771D+01  1  2 12  2  5  2       -2 0.140830203789D+04
-.822481375074D-01 0.000000000000D+00 0.000000000000D+00 0.370538986329D+00 0.000000000000D+00  5 2 -2 -11 11 21 2 0.95156131D-01 0.52967151D-03 0.17230855D+04 0.85178521D+04 0.85178521D+04 0.12166208D+01  1  2  4  2  5  2       -2 -.280025822680D+04
-.963551017540D-01 0.000000000000D+00 -.375089661181D-02 0.370538986329D+00 0.000000000000D+00  5 2 -2 -11 11 21 2 0.95156131D-01 0.98398496D-03 0.17230855D+04 0.85178521D+04 0.85178521D+04 0.12166208D+01  1  2  5  2  5  2       -2 -.149410710773D+04
0.828859750037D-01 0.000000000000D+00 0.313094050807D-02 0.370538986329D+00 0.000000000000D+00  5 2 -2 -11 11 21 2 0.95156131D-01 0.52967151D-03 0.17230855D+04 0.85178521D+04 0.85178521D+04 0.12166208D+01  1  2  6  2  5  2       -2 0.299232214278D+04
0.403257058022D-03 0.000000000000D+00 0.000000000000D+00 0.370538986329D+00 0.551658339278D-01  5 2 -2 -11 11 21 2 0.96375017D-01 0.97183153D-03 0.20871304D+04 0.85819430D+04 0.85819430D+04 0.12162771D+01  1  2 11  2  5  2       -2 0.590409081283D+01
0.651923691563D-02 0.000000000000D+00 0.000000000000D+00 0.370538986329D+00 0.000000000000D+00  5 2 21 -11 11 2 2 0.95156131D-01 0.98428003D-03 0.20871304D+04 0.85819430D+04 0.85819430D+04 0.12162771D+01  1  2 12  4  5  2       -2 0.183517145611D+04
-.629697517804D-02 0.000000000000D+00 -.253241488286D-03 0.370538986329D+00 0.000000000000D+00  5 2 21 -11 11 2 2 0.95156131D-01 0.98398496D-03 0.17230855D+04 0.85178521D+04 0.85178521D+04 0.12166208D+01  1  2  5  4  5  2       -2 -.188740589127D+04
0.278859183009D-04 0.000000000000D+00 0.000000000000D+00 0.370538986329D+00 0.380426321477D-02  5 2 21 -11 11 2 2 0.96375017D-01 0.97183153D-03 0.20871304D+04 0.85819430D+04 0.85819430D+04 0.12162771D+01  1  2 11  4  5  2       -2 0.788625014953D+01
  </mgrwgt>
  </event>
  <event npLO=' -1 ' npNLO=' 0 '>
  5     66 0.12487420E+02 0.44065053E+02 0.75467711E-02 0.11783104E+00
        2 -1    0    0  501    0 0.00000000E+00 0.00000000E+00 0.25585433E+02 0.25585433E+02 0.00000000E+00 0.0000E+00 0.9000E+01
       -2 -1    0    0    0  501 0.00000000E+00 0.00000000E+00 -.79515737E+02 0.79515737E+02 0.00000000E+00 0.0000E+00 0.9000E+01
       23  2    1    2    0    0 0.00000000E+00 0.00000000E+00 -.53930303E+02 0.10510117E+03 0.90209635E+02 0.0000E+00 0.0000E+00
      -13  1    3    3    0    0 0.25185491E+02 0.15322597E+02 -.66737707E+02 0.72958978E+02 0.00000000E+00 0.0000E+00 0.9000E+01
       13  1    3    3    0    0 -.25185491E+02 -.15322597E+02 0.12807404E+02 0.32142192E+02 0.00000000E+00 0.0000E+00 0.9000E+01
#aMCatNLO 1  0  0  2  1 0.18595110D+02 0.00000000D+00  -5  5  0 0.00000000D+00 0.00000000D+00 0.00000000D+00 0.00000000D+00 0.00000000D+00
  <mgrwgt>
 0.2622875295D+03    7    2    0
 0.451048177163170D+02 0.000000000000000D+00 0.000000000000000D+00 0.451048177163170D+02
 0.451048177163170D+02 0.000000000000000D+00 0.000000000000000D+00 -.451048177163170D+02
 0.451048177163170D+02 0.251854905235501D+02 0.153225967426235D+02 -.341372769472508D+02
 0.451048177163170D+02 -.251854905235501D+02 -.153225967426235D+02 0.341372769472508D+02
 0.000000000000000D+00 -.000000000000000D+00 -.000000000000000D+00 -.000000000000000D+00
 0.467324526316099D+02 0.000000000000000D+00 0.000000000000000D+00 0.467324526316099D+02
 0.167326617970568D+03 0.000000000000000D+00 0.000000000000000D+00 -.167326617970568D+03
 0.499717017652589D+02 0.267822547591015D+02 0.247896778914384D+02 -.341372769472508D+02
 0.420966025753934D+02 -.237209847762812D+02 -.663966507142884D+01 0.341372769472508D+02
 0.121990766261526D+03 -.306126998282032D+01 -.181500128200095D+02 -.120594165338958D+03
0.257004508953D-01 0.000000000000D+00 0.000000000000D+00 0.643392821179D+00 0.000000000000D+00  5 2 -2 -13 13 21 0 0.39362205D-02 0.12233190D-01 0.86909090D+03 0.81377783D+04 0.81377783D+04 0.12187202D+01  1  2  2  2  5  2       -2 0.269680217279D+03
-.111384636340D-02 0.000000000000D+00 -.986964985221D-04 0.643392821179D+00 0.000000000000D+00  5 2 -2 -13 13 21 2 0.39362205D-02 0.12233190D-01 0.86909090D+03 0.81377783D+04 0.81377783D+04 0.12187202D+01  1  2  3  2  5  2       -2 -.208004036997D+02
0.926173268050D-03 0.000000000000D+00 0.000000000000D+00 0.643392821179D+00 0.000000000000D+00  5 2 -2 -13 13 21 2 0.39362205D-02 0.12233190D-01 0.86909090D+03 0.81377783D+04 0.81377783D+04 0.12187202D+01  1  2 15  2  5  2       -2 0.144347282098D+02
0.204124271049D+00 0.000000000000D+00 0.000000000000D+00 0.643392821179D+00 0.000000000000D+00  5 2 -2 -13 13 21 2 0.39362205D-02 0.47019442D-01 0.15813803D+04 0.84765727D+04 0.84765727D+04 0.12168437D+01  1  2 12  2  5  2       -2 0.337959371638D+03
-.181029093501D+00 0.000000000000D+00 -.823031779740D-02 0.643392821179D+00 0.000000000000D+00  5 2 -2 -13 13 21 2 0.39362205D-02 0.46155748D-01 0.86909090D+03 0.81377783D+04 0.81377783D+04 0.12187202D+01  1  2  5  2  5  2       -2 -.342113949660D+03
0.326219564015D-01 0.000000000000D+00 0.000000000000D+00 0.643392821179D+00 0.000000000000D+00  5 2 21 -13 13 2 2 0.39362205D-02 0.47019442D-01 0.15813803D+04 0.84765727D+04 0.84765727D+04 0.12168437D+01  1  2 12  4  5  2       -2 0.600608979582D+03
-.282836962646D-01 0.000000000000D+00 -.129374584936D-02 0.643392821179D+00 0.000000000000D+00  5 2 21 -13 13 2 2 0.39362205D-02 0.46155748D-01 0.86909090D+03 0.81377783D+04 0.81377783D+04 0.12187202D+01  1  2  5  4  5  2       -2 -.597481413863D+03
  </mgrwgt>
  </event>
  <event npLO=' -1 ' npNLO=' 0 '>
  6     66 0.12487420E+02 0.88308259E+02 0.75467711E-02 0.10913311E+00
        2 -1    0    0  501    0 0.00000000E+00 0.00000000E+00 0.21291647E+04 0.21291647E+04 0.00000000E+00 0.0000E+00 0.9000E+01
       21 -1    0    0  502  501 0.00000000E+00 0.00000000E+00 -.13305931E+02 0.13305931E+02 0.00000000E+00 0.0000E+00 0.9000E+01
       23  2    1    2    0    0 -.97733663E+02 0.84136891E+02 0.56381300E+03 0.58507635E+03 0.88308259E+02 0.0000E+00 0.0000E+00
      -13  1    3    3    0    0 -.88528321E+01 -.10511172E+02 0.16693622E+03 0.16750092E+03 0.00000000E+00 0.0000E+00 0.9000E+01
       13  1    3    3    0    0 -.88880830E+02 0.94648062E+02 0.39687678E+03 0.41757543E+03 0.00000000E+00 0.0000E+00 0.9000E+01
        2  1    1    2  502    0 0.97733663E+02 -.84136891E+02 0.15520457E+04 0.15573942E+04 0.00000000E+00 0.0000E+00 0.9000E+01
#aMCatNLO 2  0  0  2  1 0.27758534D+03 0.00000000D+00  -5  5  0 0.00000000D+00 0.00000000D+00 0.00000000D+00 0.00000000D+00 0.00000000D+00
  <mgrwgt>
 0.1390889428D+03    1    2    0
 0.441541295329457D+02 0.000000000000000D+00 0.000000000000000D+00 0.441541295329457D+02
 0.441541295329457D+02 0.000000000000000D+00 0.000000000000000D+00 -.441541295329457D+02
 0.441541295329457D+02 0.187078238462112D+02 -.342375708873758D+02 0.206734907909429D+02
 0.441541295329457D+02 -.187078238462112D+02 0.342375708873758D+02 -.206734907909429D+02
 0.000000000000000D+00 0.000000000000000D+00 -.000000000000000D+00 0.000000000000000D+00
 0.289658294730790D+03 0.000000000000000D+00 0.000000000000000D+00 0.289658294730790D+03
 0.978066881873456D+02 0.000000000000000D+00 0.000000000000000D+00 -.978066881873456D+02
 0.248243950158780D+02 -.885283208625436D+01 -.105111716984231D+02 0.206734907909429D+02
 0.131474145514802D+03 -.888808304778232D+02 0.946480622672048D+02 -.206734907909429D+02
 0.231166442387455D+03 0.977336625640775D+02 -.841368905687817D+02 0.191851606543444D+03
0.109543058873D-01 0.000000000000D+00 0.000000000000D+00 0.113377930768D+00 0.604831219083D-04  5 2 21 -13 13 2 2 0.32756379D+00 0.20470663D-02 0.18569773D+05 0.24429234D+05 0.24429234D+05 0.11710709D+01  1  2  1  4  5  2       -2 0.139088942844D+03
  </mgrwgt>
  </event>
  <event npLO=' -1 ' npNLO=' 0 '>
  4     66 0.12487420E+02 0.92405034E+02 0.75467711E-02 0.10941525E+00
        2 -1    0    0  501    0 0.00000000E+00 0.00000000E+00 0.22447709E+04 0.22447709E+04 0.00000000E+00 0.0000E+00 0.9000E+01
       -2 -1    0    0    0  501 0.00000000E+00 0.00000000E+00 -.26216591E+01 0.26216591E+01 0.00000000E+00 0.0000E+00 0.9000E+01
      -13  1    1    2    0    0 0.82935224E+01 0.22938742E+02 0.55693633E+02 0.60800897E+02 0.00000000E+00 0.0000E+00 0.9000E+01
       13  1    1    2    0    0 -.82935224E+01 -.22938742E+02 0.21864556E+04 0.21865917E+04 0.00000000E+00 0.0000E+00 0.9000E+01
#aMCatNLO 1  0  0  1  2 0.82761090D+00 0.00000000D+00  -5  5  0 0.00000000D+00 0.00000000D+00 0.00000000D+00 0.00000000D+00 0.00000000D+00
  <mgrwgt>
 0.1260185271D+04   11    2    0
 0.767139105468554D+02 0.000000000000000D+00 0.000000000000000D+00 0.767139105468554D+02
 0.767139105468554D+02 0.000000000000000D+00 0.000000000000000D+00 -.767139105468554D+02
 0.767139105468554D+02 0.829352241268188D+01 0.229387419760601D+02 -.727327689142729D+02
 0.767139105468554D+02 -.829352241268188D+01 -.229387419760601D+02 0.727327689142729D+02
 0.000000000000000D+00 -.000000000000000D+00 -.000000000000000D+00 0.000000000000000D+00
 0.813481166615911D+02 0.000000000000000D+00 0.000000000000000D+00 0.813481166615911D+02
 0.767516690605441D+02 0.000000000000000D+00 0.000000000000000D+00 -.767516690605441D+02
 0.768391421358035D+02 0.830215543656386D+01 0.233510664710699D+02 -.727327689142729D+02
 0.765908925059425D+02 -.828490334583265D+01 -.225270840871613D+02 0.727327689142729D+02
 0.466975108038931D+01 -.172520907312136D-01 -.823982383908593D+00 0.459644760104701D+01
0.838942274542D-01 0.000000000000D+00 0.000000000000D+00 0.937943181226D-02 0.000000000000D+00  5 2 -2 -13 13 21 0 0.34534937D+00 0.40333217D-03 0.59496840D+03 0.23540096D+05 0.23540096D+05 0.11725849D+01  1  2  2  1  5  1        2 0.362313101313D+03
0.277934132801D-02 0.000000000000D+00 -.322175923281D-03 0.937943181226D-02 0.000000000000D+00  5 2 -2 -13 13 21 2 0.34534937D+00 0.40333217D-03 0.59496840D+03 0.23540096D+05 0.23540096D+05 0.11725849D+01  1  2  3  1  5  1        2 0.946751750751D+01
0.260048595964D-02 0.000000000000D+00 0.000000000000D+00 0.937943181226D-02 0.000000000000D+00  5 2 -2 -13 13 21 2 0.34534937D+00 0.40333217D-03 0.59496840D+03 0.23540096D+05 0.23540096D+05 0.11725849D+01  1  2 15  1  5  1        2 0.154416983263D+02
0.961086111708D-05 0.000000000000D+00 0.000000000000D+00 0.937943181226D-02 0.000000000000D+00  5 2 -2 -13 13 21 2 0.36639181D+00 0.40333217D-03 0.61527455D+03 0.23540776D+05 0.23540776D+05 0.11725837D+01  1  2 12  1  5  1        2 0.480137157941D-01
-.920347614912D+01 0.000000000000D+00 0.000000000000D+00 0.937943181226D-02 0.000000000000D+00  5 2 -2 -13 13 21 2 0.34534937D+00 0.40333217D-03 0.59496840D+03 0.23540096D+05 0.23540096D+05 0.11725849D+01  1  2  4  1  5  1        2 -.546502863135D+05
-.955756728546D+01 0.000000000000D+00 -.152158493398D+00 0.937943181226D-02 0.000000000000D+00  5 2 -2 -13 13 21 2 0.36626731D+00 0.40333217D-03 0.59496840D+03 0.23540096D+05 0.23540096D+05 0.11725849D+01  1  2  5  1  5  1        2 -.505955529190D+05
0.955025963801D+01 0.000000000000D+00 0.151895771256D+00 0.937943181226D-02 0.000000000000D+00  5 2 -2 -13 13 21 2 0.34534937D+00 0.40333217D-03 0.59496840D+03 0.23540096D+05 0.23540096D+05 0.11725849D+01  1  2  6  1  5  1        2 0.600268461365D+05
0.922007020886D+01 0.000000000000D+00 0.000000000000D+00 0.937943181226D-02 0.101442413017D+00  5 2 -2 -13 13 21 2 0.36621156D+00 0.40353069D-03 0.61527455D+03 0.23540776D+05 0.23540776D+05 0.11725837D+01  1  2 11  1  5  1        2 0.460992936336D+05
0.151438357557D-06 0.000000000000D+00 0.000000000000D+00 0.937943181226D-02 0.000000000000D+00  5 21 -2 -13 13 -2 2 0.36639181D+00 0.40333217D-03 0.61527455D+03 0.23540776D+05 0.23540776D+05 0.11725837D+01  1  2 12  3  5  1        2 0.121990273050D-03
-.965043003435D-01 0.000000000000D+00 -.153928353949D-02 0.937943181226D-02 0.000000000000D+00  5 21 -2 -13 13 -2 2 0.36626731D+00 0.40333217D-03 0.59496840D+03 0.23540096D+05 0.23540096D+05 0.11725849D+01  1  2  5  3  5  1        2 -.824360503508D+02
0.930060134158D-01 0.000000000000D+00 0.000000000000D+00 0.937943181226D-02 0.102249941350D-02  5 21 -2 -13 13 -2 2 0.36621156D+00 0.40353069D-03 0.61527455D+03 0.23540776D+05 0.23540776D+05 0.11725837D+01  1  2 11  3  5  1        2 0.750503304037D+02
  </mgrwgt>
  </event>
  <event npLO=' -1 ' npNLO=' 0 '>
  5     66 0.12487420E+02 0.50919103E+02 0.75467711E-02 0.11827161E+00
        2 -1    0    0  501    0 0.00000000E+00 0.00000000E+00 0.67949209E+03 0.67949209E+03 0.00000000E+00 0.0000E+00 0.9000E+01
       -2 -1    0    0    0  501 0.00000000E+00 0.00000000E+00 -.29626276E+01 0.29626276E+01 0.00000000E+00 0.0000E+00 0.9000E+01
       23  2    1    2    0    0 0.00000000E+00 0.00000000E+00 0.67652946E+03 0.68245472E+03 0.89734765E+02 0.0000E+00 0.0000E+00
      -13  1    3    3    0    0 -.24119359E+02 -.40626323E+01 0.62433043E+03 0.62480936E+03 0.00000000E+00 0.0000E+00 0.9000E+01
       13  1    3    3    0    0 0.24119359E+02 0.40626323E+01 0.52199034E+02 0.57645361E+02 0.00000000E+00 0.0000E+00 0.9000E+01
#aMCatNLO 1  0  0  1  2 0.43007752D+01 0.00000000D+00  -5  5  0 0.00000000D+00 0.00000000D+00 0.00000000D+00 0.00000000D+00 0.00000000D+00
  <mgrwgt>
 0.6343233126D+03   11    2    0
 0.448673823006103D+02 0.000000000000000D+00 0.000000000000000D+00 0.448673823006103D+02
 0.448673823006103D+02 0.000000000000000D+00 0.000000000000000D+00 -.448673823006103D+02
 0.448673823006103D+02 -.241193590874990D+02 -.406263227279118D+01 0.376142729656373D+02
 0.448673823006103D+02 0.241193590874990D+02 0.406263227279118D+01 -.376142729656373D+02
 0.000000000000000D+00 -.000000000000000D+00 0.000000000000000D+00 0.000000000000000D+00
 0.500321882941894D+02 0.000000000000000D+00 0.000000000000000D+00 0.500321882941894D+02
 0.456862635652367D+02 0.000000000000000D+00 0.000000000000000D+00 -.456862635652367D+02
 0.450292373036818D+02 -.240031867217042D+02 -.605356990715496D+01 0.376142729656373D+02
 0.447938981974315D+02 0.242352273272781D+02 0.207690668628341D+01 -.376142729656373D+02
 0.589531635831283D+01 -.232040605573932D+00 0.397666322087155D+01 0.434592472895278D+01
0.128732207139D-01 0.000000000000D+00 0.000000000000D+00 0.408910676960D+00 0.000000000000D+00  5 2 -2 -13 13 21 0 0.10453724D+00 0.45578885D-03 0.59824846D+03 0.80523280D+04 0.80523280D+04 0.12192074D+01  1  2  2  1  5  1        2 0.325305225211D+03
-.395101055180D-03 0.000000000000D+00 -.494365571381D-04 0.408910676960D+00 0.000000000000D+00  5 2 -2 -13 13 21 2 0.10453724D+00 0.45578885D-03 0.59824846D+03 0.80523280D+04 0.80523280D+04 0.12192074D+01  1  2  3  1  5  1        2 -.196687463320D+02
0.481272552473D-03 0.000000000000D+00 0.000000000000D+00 0.408910676960D+00 0.000000000000D+00  5 2 -2 -13 13 21 2 0.10453724D+00 0.45578885D-03 0.59824846D+03 0.80523280D+04 0.80523280D+04 0.12192074D+01  1  2 15  1  5  1        2 0.180779868675D+02
0.947308789288D-02 0.000000000000D+00 0.000000000000D+00 0.408910676960D+00 0.000000000000D+00  5 2 -2 -13 13 21 2 0.11869836D+00 0.45578885D-03 0.70390075D+03 0.80681957D+04 0.80681957D+04 0.12191165D+01  1  2 12  1  5  1        2 0.307601565120D+03
-.621429208048D-01 0.000000000000D+00 0.000000000000D+00 0.408910676960D+00 0.000000000000D+00  5 2 -2 -13 13 21 2 0.10453724D+00 0.45578885D-03 0.59824846D+03 0.80523280D+04 0.80523280D+04 0.12192074D+01  1  2  4  1  5  1        2 -.233426755888D+04
-.953608237485D-01 0.000000000000D+00 -.162917142518D-01 0.408910676960D+00 0.000000000000D+00  5 2 -2 -13 13 21 2 0.11779633D+00 0.45578885D-03 0.59824846D+03 0.80523280D+04 0.80523280D+04 0.12192074D+01  1  2  5  1  5  1        2 -.451173743197D+04
0.967312524786D-01 0.000000000000D+00 0.161762434830D-01 0.408910676960D+00 0.000000000000D+00  5 2 -2 -13 13 21 2 0.10453724D+00 0.45578885D-03 0.59824846D+03 0.80523280D+04 0.80523280D+04 0.12192074D+01  1  2  6  1  5  1        2 0.521315787331D+04
0.521441703307D-01 0.000000000000D+00 0.000000000000D+00 0.408910676960D+00 0.205306197832D+00  5 2 -2 -13 13 21 2 0.11657081D+00 0.46410752D-03 0.70390075D+03 0.80681957D+04 0.80681957D+04 0.12191165D+01  1  2 11  1  5  1        2 0.168744537706D+04
0.188527198247D-03 0.000000000000D+00 0.000000000000D+00 0.408910676960D+00 0.000000000000D+00  5 21 -2 -13 13 -2 2 0.11869836D+00 0.45578885D-03 0.70390075D+03 0.80681957D+04 0.80681957D+04 0.12191165D+01  1  2 12  3  5  1        2 0.704741541857D+01
-.172724193801D-02 0.000000000000D+00 -.307844301331D-03 0.408910676960D+00 0.000000000000D+00  5 21 -2 -13 13 -2 2 0.11779633D+00 0.45578885D-03 0.59824846D+03 0.80523280D+04 0.80523280D+04 0.12192074D+01  1  2  5  3  5  1        2 -.964117568865D+02
0.987360036961D-03 0.000000000000D+00 0.000000000000D+00 0.408910676960D+00 0.364190765872D-02  5 21 -2 -13 13 -2 2 0.11657081D+00 0.46410752D-03 0.70390075D+03 0.80681957D+04 0.80681957D+04 0.12191165D+01  1  2 11  3  5  1        2 0.377733637307D+02
  </mgrwgt>
  </event>
  <event npLO=' -1 ' npNLO=' 0 '>
  5     66 -.12487420E+02 0.39428191E+02 0.75467711E-02 0.11809015E+00
        2 -1    0    0  501    0 0.00000000E+00 0.00000000E+00 0.23057389E+01 0.23057389E+01 0.00000000E+00 0.0000E+00 0.9000E+01
       -2 -1    0    0    0  501 0.00000000E+00 0.00000000E+00 -.89101840E+03 0.89101840E+03 0.00000000E+00 0.0000E+00 0.9000E+01
       23  2    1    2    0    0 0.00000000E+00 0.00000000E+00 -.88871266E+03 0.89332414E+03 0.90652211E+02 0.0000E+00 0.0000E+00
      -13  1    3    3    0    0 0.13646886E+02 0.36960277E+02 -.66518228E+03 0.66634808E+03 0.00000000E+00 0.0000E+00 0.9000E+01
       13  1    3    3    0    0 -.13646886E+02 -.36960277E+02 -.22353038E+03 0.22697606E+03 0.00000000E+00 0.0000E+00 0.9000E+01
#aMCatNLO 1  0  0  1  2 0.50179679D+01 0.00000000D+00  -5  5  0 0.00000000D+00 0.00000000D+00 0.00000000D+00 0.00000000D+00 0.00000000D+00
  <mgrwgt>
 -.7011542154D+03   11    2    0
 0.453261052910148D+02 0.000000000000000D+00 0.000000000000000D+00 0.453261052910148D+02
 0.453261052910148D+02 0.000000000000000D+00 0.000000000000000D+00 -.453261052910148D+02
 0.453261052910148D+02 0.136468859014851D+02 0.369602769710533D+02 -.224088431711018D+02
 0.453261052910148D+02 -.136468859014851D+02 -.369602769710533D+02 0.224088431711018D+02
 0.000000000000000D+00 -.000000000000000D+00 -.000000000000000D+00 0.000000000000000D+00
 0.479620556428257D+02 0.000000000000000D+00 0.000000000000000D+00 0.479620556428257D+02
 0.468879313168310D+02 0.000000000000000D+00 0.000000000000000D+00 -.468879313168310D+02
 0.469274611907363D+02 0.150903848997976D+02 0.383707003469703D+02 -.224088431711018D+02
 0.438115579612084D+02 -.122521416924147D+02 -.355974912412417D+02 0.224088431711018D+02
 0.411096780771202D+01 -.283824320738286D+01 -.277320910572860D+01 0.107412432599469D+01
0.217898574433D+00 0.000000000000D+00 0.000000000000D+00 0.719675660136D+00 0.000000000000D+00  5 2 -2 -13 13 21 0 0.35472907D-03 0.13707975D+00 0.15522996D+04 0.82178233D+04 0.82178233D+04 0.12182690D+01  1  2  2  1  5  1        2 0.559989298434D+03
-.118164298545D-01 0.000000000000D+00 -.836787899836D-03 0.719675660136D+00 0.000000000000D+00  5 2 -2 -13 13 21 2 0.35472907D-03 0.13707975D+00 0.15522996D+04 0.82178233D+04 0.82178233D+04 0.12182690D+01  1  2  3  1  5  1        2 -.503903350335D+02
0.121803970049D-01 0.000000000000D+00 0.000000000000D+00 0.719675660136D+00 0.000000000000D+00  5 2 -2 -13 13 21 2 0.35472907D-03 0.13707975D+00 0.15522996D+04 0.82178233D+04 0.82178233D+04 0.12182690D+01  1  2 15  1  5  1        2 0.464593578540D+02
0.207703546937D+00 0.000000000000D+00 0.000000000000D+00 0.719675660136D+00 0.000000000000D+00  5 2 -2 -13 13 21 2 0.38829235D-03 0.13707975D+00 0.17158891D+04 0.82335696D+04 0.82335696D+04 0.12181809D+01  1  2 12  1  5  1        2 0.702477851588D+03
-.568368988039D+00 0.000000000000D+00 0.000000000000D+00 0.719675660136D+00 0.000000000000D+00  5 2 -2 -13 13 21 2 0.35472907D-03 0.13707975D+00 0.15522996D+04 0.82178233D+04 0.82178233D+04 0.12182690D+01  1  2  4  1  5  1        2 -.216791441181D+04
-.203175558551D+01 0.000000000000D+00 -.395285398769D+00 0.719675660136D+00 0.000000000000D+00  5 2 -2 -13 13 21 2 0.38870303D-03 0.13707975D+00 0.15522996D+04 0.82178233D+04 0.82178233D+04 0.12182690D+01  1  2  5  1  5  1        2 -.908720136018D+04
0.206093045103D+01 0.000000000000D+00 0.393637826538D+00 0.719675660136D+00 0.000000000000D+00  5 2 -2 -13 13 21 2 0.35472907D-03 0.13707975D+00 0.15522996D+04 0.82178233D+04 0.82178233D+04 0.12182690D+01  1  2  6  1  5  1        2 0.103632063511D+05
0.343513516848D+00 0.000000000000D+00 0.000000000000D+00 0.719675660136D+00 0.362926051076D+00  5 2 -2 -13 13 21 2 0.37535842D-03 0.14180319D+00 0.17158891D+04 0.82335696D+04 0.82335696D+04 0.12181809D+01  1  2 11  1  5  1        2 0.110675784436D+04
0.316627290313D-02 0.000000000000D+00 0.000000000000D+00 0.719675660136D+00 0.000000000000D+00  5 21 -2 -13 13 -2 2 0.38829235D-03 0.13707975D+00 0.17158891D+04 0.82335696D+04 0.82335696D+04 0.12181809D+01  1  2 12  3  5  1        2 0.218981849052D+03
-.294344397350D-01 0.000000000000D+00 -.594115255003D-02 0.719675660136D+00 0.000000000000D+00  5 21 -2 -13 13 -2 2 0.38870303D-03 0.13707975D+00 0.15522996D+04 0.82178233D+04 0.82178233D+04 0.12182690D+01  1  2  5  3  5  1        2 -.271641199408D+04
0.488451904312D-02 0.000000000000D+00 0.000000000000D+00 0.719675660136D+00 0.352564597315D-02  5 21 -2 -13 13 -2 2 0.37535842D-03 0.14180319D+00 0.17158891D+04 0.82335696D+04 0.82335696D+04 0.12181809D+01  1  2 11  3  5  1        2 0.322891333276D+03
  </mgrwgt>
  </event>
  <event npLO=' -1 ' npNLO=' 0 '>
  5     66 0.12487420E+02 0.37978750E+02 0.75467711E-02 0.11775559E+00
        2 -1    0    0  501    0 0.00000000E+00 0.00000000E+00 0.34878146E+02 0.34878146E+02 0.00000000E+00 0.0000E+00 0.9000E+01
       -2 -1    0    0    0  501 0.00000000E+00 0.00000000E+00 -.60129905E+02 0.60129905E+02 0.00000000E+00 0.0000E+00 0.9000E+01
       23  2    1    2    0    0 0.00000000E+00 0.00000000E+00 -.25251759E+02 0.95008051E+02 0.91590820E+02 0.0000E+00 0.0000E+00
      -13  1    3    3    0    0 0.22645017E+02 -.15325886E+02 -.50732580E+02 0.57632233E+02 0.00000000E+00 0.0000E+00 0.9000E+01
       13  1    3    3    0    0 -.22645017E+02 0.15325886E+02 0.25480821E+02 0.37375818E+02 0.00000000E+00 0.0000E+00 0.9000E+01
#aMCatNLO 1  0  0  2  1 0.20802590D+02 0.00000000D+00  -5  5  0 0.00000000D+00 0.00000000D+00 0.00000000D+00 0.00000000D+00 0.00000000D+00
  <mgrwgt>
 0.3217620914D+03    6    2    0
 0.457954100634692D+02 0.000000000000000D+00 0.000000000000000D+00 0.457954100634692D+02
 0.457954100634692D+02 0.000000000000000D+00 0.000000000000000D+00 -.457954100634692D+02
 0.457954100634692D+02 0.226450167612845D+02 -.153258856454718D+02 -.367360861816329D+02
 0.457954100634692D+02 -.226450167612845D+02 0.153258856454718D+02 0.367360861816329D+02
 0.000000000000000D+00 0.000000000000000D+00 -.000000000000000D+00 0.000000000000000D+00
 0.547979273223691D+02 0.000000000000000D+00 0.000000000000000D+00 0.547979273223691D+02
 0.508989884040709D+02 0.000000000000000D+00 0.000000000000000D+00 -.508989884040709D+02
 0.428403404275658D+02 0.166115957843962D+02 -.144848067125937D+02 -.367360861816329D+02
 0.496198532620284D+02 -.291399180632328D+02 0.162312964691350D+02 0.367360861816329D+02
 0.132367220368458D+02 0.125283222788366D+02 -.174648975654134D+01 0.389893891829821D+01
0.278363558269D-01 0.000000000000D+00 0.000000000000D+00 0.114812982868D+01 0.000000000000D+00  5 2 -2 -13 13 21 0 0.53658686D-02 0.92507546D-02 0.74767955D+03 0.83888783D+04 0.83888783D+04 0.12173212D+01  1  2  2  2  5  2       -2 0.299112487858D+03
-.104641821317D-02 0.000000000000D+00 -.106898935856D-03 0.114812982868D+01 0.000000000000D+00  5 2 -2 -13 13 21 2 0.53658686D-02 0.92507546D-02 0.74767955D+03 0.83888783D+04 0.83888783D+04 0.12173212D+01  1  2  3  2  5  2       -2 -.207777550660D+02
0.992792513753D-03 0.000000000000D+00 0.000000000000D+00 0.114812982868D+01 0.000000000000D+00  5 2 -2 -13 13 21 2 0.53658686D-02 0.92507546D-02 0.74767955D+03 0.83888783D+04 0.83888783D+04 0.12173212D+01  1  2 15  2  5  2       -2 0.158085141488D+02
0.106861069983D-01 0.000000000000D+00 0.000000000000D+00 0.114812982868D+01 0.000000000000D+00  5 2 -2 -13 13 21 2 0.53658686D-02 0.12302873D-01 0.11575244D+04 0.85488874D+04 0.85488874D+04 0.12164540D+01  1  2 12  2  5  2       -2 0.110267761088D+03
-.880862256216D-02 0.000000000000D+00 0.000000000000D+00 0.114812982868D+01 0.000000000000D+00  5 2 -2 -13 13 21 2 0.53658686D-02 0.92507546D-02 0.74767955D+03 0.83888783D+04 0.83888783D+04 0.12173212D+01  1  2  4  2  5  2       -2 -.140262172081D+03
0.398145261983D-03 0.000000000000D+00 0.000000000000D+00 0.114812982868D+01 0.000000000000D+00  5 2 21 -13 13 2 2 0.53658686D-02 0.12302873D-01 0.11575244D+04 0.85488874D+04 0.85488874D+04 0.12164540D+01  1  2 12  4  5  2       -2 0.576132554318D+02
  </mgrwgt>
  </event>
  <event npLO=' -1 ' npNLO=' 0 '>
  5     66 0.12487420E+02 0.33181158E+02 0.75467711E-02 0.11688722E+00
        2 -1    0    0  501    0 0.00000000E+00 0.00000000E+00 0.71279545E+01 0.71279545E+01 0.00000000E+00 0.0000E+00 0.9000E+01
       -2 -1    0    0    0  501 0.00000000E+00 0.00000000E+00 -.28006444E+03 0.28006444E+03 0.00000000E+00 0.0000E+00 0.9000E+01
       23  2    1    2    0    0 0.00000000E+00 0.00000000E+00 -.27293649E+03 0.28719239E+03 0.89359646E+02 0.0000E+00 0.0000E+00
      -13  1    3    3    0    0 -.41094831E+02 0.17484918E+02 -.14075506E+03 0.14767022E+03 0.00000000E+00 0.0000E+00 0.9000E+01
       13  1    3    3    0    0 0.41094831E+02 -.17484918E+02 -.13218143E+03 0.13952218E+03 0.00000000E+00 0.0000E+00 0.9000E+01
#aMCatNLO 1  0  0  1  2 0.57163750D+02 0.00000000D+00  -5  5  0 0.00000000D+00 0.00000000D+00 0.00000000D+00 0.00000000D+00 0.00000000D+00
  <mgrwgt>
 0.4728816085D+03    5    2    0
 0.446798231109195D+02 0.000000000000000D+00 0.000000000000000D+00 0.446798231109195D+02
 0.446798231109195D+02 0.000000000000000D+00 0.000000000000000D+00 -.446798231109195D+02
 0.446798231109195D+02 -.410948306240851D+02 0.174849182139749D+02 -.133383816537753D+01
 0.446798231109195D+02 0.410948306240851D+02 -.174849182139749D+02 0.133383816537753D+01
 0.000000000000000D+00 -.000000000000000D+00 -.000000000000000D+00 -.000000000000000D+00
 0.648236139625116D+02 0.000000000000000D+00 0.000000000000000D+00 0.648236139625116D+02
 0.708560920813796D+02 0.000000000000000D+00 0.000000000000000D+00 -.708560920813796D+02
 0.318021870213247D+02 -.255448304274374D+02 0.188960740240232D+02 -.133383816537753D+01
 0.653300186022187D+02 0.634615683355367D+02 -.154551464149916D+02 0.133383816537753D+01
 0.385475004203478D+02 -.379167379080994D+02 -.344092760903166D+01 -.603247811886802D+01
0.586629350961D-01 0.000000000000D+00 0.000000000000D+00 0.186745580381D+00 0.000000000000D+00  5 2 -2 -13 13 21 0 0.10966084D-02 0.43086837D-01 0.19945075D+04 0.79851464D+04 0.79851464D+04 0.12195944D+01  1  2  2  1  5  1        2 0.420882904603D+03
-.325905116225D-02 0.000000000000D+00 -.225281117075D-03 0.186745580381D+00 0.000000000000D+00  5 2 -2 -13 13 21 2 0.10966084D-02 0.43086837D-01 0.19945075D+04 0.79851464D+04 0.79851464D+04 0.12195944D+01  1  2  3  1  5  1        2 -.381141359853D+02
0.336961468731D-02 0.000000000000D+00 0.000000000000D+00 0.186745580381D+00 0.000000000000D+00  5 2 -2 -13 13 21 2 0.10966084D-02 0.43086837D-01 0.19945075D+04 0.79851464D+04 0.79851464D+04 0.12195944D+01  1  2 15  1  5  1        2 0.359590838362D+02
0.638803279233D-02 0.000000000000D+00 0.000000000000D+00 0.186745580381D+00 0.000000000000D+00  5 2 -2 -13 13 21 2 0.25231270D-02 0.43086837D-01 0.45672695D+04 0.94346654D+04 0.94346654D+04 0.12119605D+01  1  2 12  1  5  1        2 0.223161387168D+02
0.579328366342D-03 0.000000000000D+00 0.000000000000D+00 0.186745580381D+00 0.000000000000D+00  5 21 -2 -13 13 -2 2 0.25231270D-02 0.43086837D-01 0.45672695D+04 0.94346654D+04 0.94346654D+04 0.12119605D+01  1  2 12  3  5  1        2 0.318376173546D+02
  </mgrwgt>
  </event>
  <event npLO=' -1 ' npNLO=' 0 '>
  5     66 0.12487420E+02 0.56481320E+02 0.75467711E-02 0.11476542E+00
        2 -1    0    0  501    0 0.00000000E+00 0.00000000E+00 0.29321886E+02 0.29321886E+02 0.00000000E+00 0.0000E+00 0.9000E+01
       -2 -1    0    0    0  501 0.00000000E+00 0.00000000E+00 -.70648222E+02 0.70648222E+02 0.00000000E+00 0.0000E+00 0.9000E+01
       23  2    1    2    0    0 0.00000000E+00 0.00000000E+00 -.41326336E+02 0.99970108E+02 0.91028328E+02 0.0000E+00 0.0000E+00
      -11  1    3    3    0    0 -.30396651E+01 -.17470440E+02 0.25372004E+02 0.30954716E+02 0.00000000E+00 0.0000E+00 0.9000E+01
       11  1    3    3    0    0 0.30396651E+01 0.17470440E+02 -.66698340E+02 0.69015392E+02 0.00000000E+00 0.0000E+00 0.9000E+01
#aMCatNLO 1  0  0  1  2 0.69631173D+02 0.00000000D+00  -5  5  0 0.00000000D+00 0.00000000D+00 0.00000000D+00 0.00000000D+00 0.00000000D+00
  <mgrwgt>
 0.2465068846D+03    7    2    0
 0.455141639635728D+02 0.000000000000000D+00 0.000000000000000D+00 0.455141639635728D+02
 0.455141639635728D+02 0.000000000000000D+00 0.000000000000000D+00 -.455141639635728D+02
 0.455141639635728D+02 -.303966506999812D+01 -.174704402035488D+02 0.419175771802170D+02
 0.455141639635728D+02 0.303966506999812D+01 0.174704402035488D+02 -.419175771802170D+02
 0.000000000000000D+00 0.000000000000000D+00 -.000000000000000D+00 0.000000000000000D+00
 0.140049374453908D+03 0.000000000000000D+00 0.000000000000000D+00 0.140049374453908D+03
 0.661069648896537D+02 0.000000000000000D+00 0.000000000000000D+00 -.661069648896537D+02
 0.537549100809520D+02 -.323490335605265D+02 -.927615808682210D+01 0.419175771802170D+02
 0.561595193003756D+02 -.269796685165701D+02 0.258632136078603D+02 -.419175771802170D+02
 0.962419099622345D+02 0.593287020770966D+02 -.165870555210382D+02 0.739424095642546D+02
0.319507633715D-01 0.000000000000D+00 0.000000000000D+00 0.100131459050D+01 0.000000000000D+00  5 2 -2 -11 11 21 0 0.45110594D-02 0.10868957D-01 0.31445584D+03 0.82861565D+04 0.82861565D+04 0.12178878D+01  1  2  2  1  5  1        2 0.336579935664D+03
0.142507640136D-03 0.000000000000D+00 -.122699344176D-03 0.100131459050D+01 0.000000000000D+00  5 2 -2 -11 11 21 2 0.45110594D-02 0.10868957D-01 0.31445584D+03 0.82861565D+04 0.82861565D+04 0.12178878D+01  1  2  3  1  5  1        2 -.404537339527D+01
0.123733767070D-02 0.000000000000D+00 0.000000000000D+00 0.100131459050D+01 0.000000000000D+00  5 2 -2 -11 11 21 2 0.45110594D-02 0.10868957D-01 0.31445584D+03 0.82861565D+04 0.82861565D+04 0.12178878D+01  1  2 15  1  5  1        2 0.193334681593D+02
0.400417448464D-02 0.000000000000D+00 0.000000000000D+00 0.100131459050D+01 0.000000000000D+00  5 2 -2 -11 11 21 2 0.20161080D-01 0.10868957D-01 0.43977070D+04 0.12081182D+05 0.12081182D+05 0.12009100D+01  1  2 12  1  5  1        2 0.984450239116D+01
0.272553112313D-01 0.000000000000D+00 -.150452874309D-01 0.100131459050D+01 0.000000000000D+00  5 2 -2 -11 11 21 2 0.19855369D-01 0.10868957D-01 0.31445584D+03 0.82861565D+04 0.82861565D+04 0.12178878D+01  1  2  5  1  5  1        2 -.554900132419D+02
0.724426895965D-03 0.000000000000D+00 0.000000000000D+00 0.100131459050D+01 0.000000000000D+00  5 21 -2 -11 11 -2 2 0.20161080D-01 0.10868957D-01 0.43977070D+04 0.12081182D+05 0.12081182D+05 0.12009100D+01  1  2 12  3  5  1        2 0.125270599339D+02
0.480157014480D-02 0.000000000000D+00 -.269019339253D-02 0.100131459050D+01 0.000000000000D+00  5 21 -2 -11 11 -2 2 0.19855369D-01 0.10868957D-01 0.31445584D+03 0.82861565D+04 0.82861565D+04 0.12178878D+01  1  2  5  3  5  1        2 -.722426948818D+02
  </mgrwgt>
  </event>
  <event npLO=' -1 ' npNLO=' 0 '>
  5     66 0.12487420E+02 0.27364038E+02 0.75467711E-02 0.11355160E+00
        2 -1    0    0  501    0 0.00000000E+00 0.00000000E+00 0.25952232E+02 0.25952232E+02 0.00000000E+00 0.0000E+00 0.9000E+01
       -2 -1    0    0    0  501 0.00000000E+00 0.00000000E+00 -.91037447E+02 0.91037447E+02 0.00000000E+00 0.0000E+00 0.9000E+01
       23  2    1    2    0    0 0.00000000E+00 0.00000000E+00 -.65085215E+02 0.11698968E+03 0.97213681E+02 0.0000E+00 0.0000E+00
      -13  1    3    3    0    0 0.30316367E+02 0.89125754E+01 -.76989835E+02 0.83222297E+02 0.00000000E+00 0.0000E+00 0.9000E+01
       13  1    3    3    0    0 -.30316367E+02 -.89125754E+01 0.11904620E+02 0.33767381E+02 0.00000000E+00 0.0000E+00 0.9000E+01
#aMCatNLO 1  0  0  2  1 0.79442634D+02 0.00000000D+00  -5  5  0 0.00000000D+00 0.00000000D+00 0.00000000D+00 0.00000000D+00 0.00000000D+00
  <mgrwgt>
 0.3812998024D+03    7    2    0
 0.486068403056297D+02 0.000000000000000D+00 0.000000000000000D+00 0.486068403056297D+02
 0.486068403056297D+02 0.000000000000000D+00 0.000000000000000D+00 -.486068403056297D+02
 0.486068403056297D+02 0.303163665265653D+02 0.891257536859643D+01 -.369338441733733D+02
 0.486068403056297D+02 -.303163665265653D+02 -.891257536859643D+01 0.369338441733733D+02
 0.000000000000000D+00 0.000000000000000D+00 0.000000000000000D+00 -.000000000000000D+00
 0.752245985682177D+02 0.000000000000000D+00 0.000000000000000D+00 0.752245985682177D+02
 0.129317945242276D+03 0.000000000000000D+00 0.000000000000000D+00 -.129317945242276D+03
 0.386046453910864D+02 0.848350934822808D+01 -.736477219518935D+01 -.369338441733733D+02
 0.796154101315992D+02 -.624160155408742D+02 -.328442641720145D+02 0.369338441733733D+02
 0.863224882878085D+02 0.539325061926461D+02 0.402090363672039D+02 -.540933466740588D+02
0.533301402314D-01 0.000000000000D+00 0.000000000000D+00 0.764212086531D-01 0.000000000000D+00  5 2 -2 -13 13 21 0 0.39926510D-02 0.14005761D-01 0.99851608D+03 0.94504997D+04 0.94504997D+04 0.12118845D+01  1  2  2  2  5  2       -2 0.450843095275D+03
-.229476697547D-02 0.000000000000D+00 -.204801780637D-03 0.764212086531D-01 0.000000000000D+00  5 2 -2 -13 13 21 2 0.39926510D-02 0.14005761D-01 0.99851608D+03 0.94504997D+04 0.94504997D+04 0.12118845D+01  1  2  3  2  5  2       -2 -.342064290381D+02
0.172024050321D-02 0.000000000000D+00 0.000000000000D+00 0.764212086531D-01 0.000000000000D+00  5 2 -2 -13 13 21 2 0.39926510D-02 0.14005761D-01 0.99851608D+03 0.94504997D+04 0.94504997D+04 0.12118845D+01  1  2 15  2  5  2       -2 0.213581832258D+02
0.196752802990D-02 0.000000000000D+00 0.000000000000D+00 0.764212086531D-01 0.000000000000D+00  5 2 -2 -13 13 21 2 0.39926510D-02 0.57667431D-01 0.55529460D+04 0.13975982D+05 0.13975982D+05 0.11945424D+01  1  2 12  2  5  2       -2 0.213090441928D+01
0.192426734122D-01 0.000000000000D+00 -.174649934958D-01 0.764212086531D-01 0.000000000000D+00  5 2 -2 -13 13 21 2 0.39926510D-02 0.55335885D-01 0.99851608D+03 0.94504997D+04 0.94504997D+04 0.12118845D+01  1  2  5  2  5  2       -2 -.238169122211D+02
0.333508494550D-03 0.000000000000D+00 0.000000000000D+00 0.764212086531D-01 0.000000000000D+00  5 2 21 -13 13 2 2 0.39926510D-02 0.57667431D-01 0.55529460D+04 0.13975982D+05 0.13975982D+05 0.11945424D+01  1  2 12  4  5  2       -2 0.380827043649D+01
0.338928994371D-02 0.000000000000D+00 -.285906175013D-02 0.764212086531D-01 0.000000000000D+00  5 2 21 -13 13 2 2 0.39926510D-02 0.55335885D-01 0.99851608D+03 0.94504997D+04 0.94504997D+04 0.12118845D+01  1  2  5  4  5  2       -2 -.388173097007D+02
  </mgrwgt>
  </event>
  <event npLO=' -1 ' npNLO=' 0 '>
  5     66 0.12487420E+02 0.49871280E+02 0.75467711E-02 0.11795548E+00
        2 -1    0    0  501    0 0.00000000E+00 0.00000000E+00 0.32627275E+02 0.32627275E+02 0.00000000E+00 0.0000E+00 0.9000E+01
       -2 -1    0    0    0  501 0.00000000E+00 0.00000000E+00 -.64007701E+02 0.64007701E+02 0.00000000E+00 0.0000E+00 0.9000E+01
       23  2    1    2    0    0 0.00000000E+00 0.00000000E+00 -.31380426E+02 0.96634977E+02 0.91397963E+02 0.0000E+00 0.0000E+00
      -11  1    3    3    0    0 0.41056989E+02 0.54066578E+01 0.47429936E+01 0.41682182E+02 0.00000000E+00 0.0000E+00 0.9000E+01
       11  1    3    3    0    0 -.41056989E+02 -.54066578E+01 -.36123419E+02 0.54952795E+02 0.00000000E+00 0.0000E+00 0.9000E+01
#aMCatNLO 1  0  0  2  1 0.24086044D+01 0.00000000D+00  -5  5  0 0.00000000D+00 0.00000000D+00 0.00000000D+00 0.00000000D+00 0.00000000D+00
  <mgrwgt>
 0.1448027617D+03   11    2    0
 0.456989813757818D+02 0.000000000000000D+00 0.000000000000000D+00 0.456989813757818D+02
 0.456989813757818D+02 0.000000000000000D+00 0.000000000000000D+00 -.456989813757818D+02
 0.456989813757818D+02 0.410569886853971D+02 0.540665779189471D+01 0.193258539369564D+02
 0.456989813757818D+02 -.410569886853971D+02 -.540665779189471D+01 -.193258539369564D+02
 0.000000000000000D+00 -.000000000000000D+00 -.000000000000000D+00 -.000000000000000D+00
 0.460680162646859D+02 0.000000000000000D+00 0.000000000000000D+00 0.460680162646859D+02
 0.494224674108985D+02 0.000000000000000D+00 0.000000000000000D+00 -.494224674108985D+02
 0.467495192210609D+02 0.422152797040455D+02 0.546800480220838D+01 0.193258539369564D+02
 0.446772232832574D+02 -.399246615467169D+02 -.534668591648803D+01 -.193258539369564D+02
 0.406374117126604D+01 -.229061815732855D+01 -.121318885720353D+00 -.335445114621260D+01
0.279903557817D-01 0.000000000000D+00 0.000000000000D+00 0.658104628994D+00 0.000000000000D+00  5 2 -2 -11 11 21 0 0.50195808D-02 0.98473386D-02 0.17149083D+04 0.83535876D+04 0.83535876D+04 0.12175150D+01  1  2  2  2  5  2       -2 0.298275970267D+03
-.153666902318D-02 0.000000000000D+00 -.107490336232D-03 0.658104628994D+00 0.000000000000D+00  5 2 -2 -11 11 21 2 0.50195808D-02 0.98473386D-02 0.17149083D+04 0.83535876D+04 0.83535876D+04 0.12175150D+01  1  2  3  2  5  2       -2 -.269622951107D+02
0.151529786006D-02 0.000000000000D+00 0.000000000000D+00 0.658104628994D+00 0.000000000000D+00  5 2 -2 -11 11 21 2 0.50195808D-02 0.98473386D-02 0.17149083D+04 0.83535876D+04 0.83535876D+04 0.12175150D+01  1  2 15  2  5  2       -2 0.239362710356D+02
0.820546481508D-03 0.000000000000D+00 0.000000000000D+00 0.658104628994D+00 0.000000000000D+00  5 2 -2 -11 11 21 2 0.50195808D-02 0.10735685D-01 0.18123260D+04 0.83588492D+04 0.83588492D+04 0.12174860D+01  1  2 12  2  5  2       -2 0.113697316154D+02
-.228780802505D+00 0.000000000000D+00 0.000000000000D+00 0.658104628994D+00 0.000000000000D+00  5 2 -2 -11 11 21 2 0.50195808D-02 0.98473386D-02 0.17149083D+04 0.83535876D+04 0.83535876D+04 0.12175150D+01  1  2  4  2  5  2       -2 -.361391607605D+04
-.376150895385D+00 0.000000000000D+00 -.400295590778D-01 0.658104628994D+00 0.000000000000D+00  5 2 -2 -11 11 21 2 0.50195808D-02 0.10727054D-01 0.17149083D+04 0.83535876D+04 0.83535876D+04 0.12175150D+01  1  2  5  2  5  2       -2 -.609772190664D+04
0.378336329851D+00 0.000000000000D+00 0.398834597500D-01 0.658104628994D+00 0.000000000000D+00  5 2 -2 -11 11 21 2 0.50195808D-02 0.98473386D-02 0.17149083D+04 0.83535876D+04 0.83535876D+04 0.12175150D+01  1  2  6  2  5  2       -2 0.697388053619D+04
0.228892603229D+00 0.000000000000D+00 0.000000000000D+00 0.658104628994D+00 0.993051278411D+00  5 2 -2 -11 11 21 2 0.50601157D-02 0.10649685D-01 0.18123260D+04 0.83588492D+04 0.83588492D+04 0.12174860D+01  1  2 11  2  5  2       -2 0.317733479384D+04
0.122385392442D-04 0.000000000000D+00 0.000000000000D+00 0.658104628994D+00 0.000000000000D+00  5 2 21 -11 11 2 2 0.50195808D-02 0.10735685D-01 0.18123260D+04 0.83588492D+04 0.83588492D+04 0.12174860D+01  1  2 12  4  5  2       -2 0.243087937125D+01
-.523394679200D-02 0.000000000000D+00 -.567474878495D-03 0.658104628994D+00 0.000000000000D+00  5 2 21 -11 11 2 2 0.50195808D-02 0.10727054D-01 0.17149083D+04 0.83535876D+04 0.83535876D+04 0.12175150D+01  1  2  5  4  5  2       -2 -.121970972260D+04
0.309126105419D-02 0.000000000000D+00 0.000000000000D+00 0.658104628994D+00 0.129848534445D-01  5 2 21 -11 11 2 2 0.50601157D-02 0.10649685D-01 0.18123260D+04 0.83588492D+04 0.83588492D+04 0.12174860D+01  1  2 11  4  5  2       -2 0.615884579820D+03
  </mgrwgt>
  </event>
  <event npLO=' -1 ' npNLO=' 0 '>
  5     66 0.12487420E+02 0.44936158E+02 0.75467711E-02 0.11563592E+00
        2 -1    0    0  501    0 0.00000000E+00 0.00000000E+00 0.20512072E+04 0.20512072E+04 0.00000000E+00 0.0000E+00 0.9000E+01
       -2 -1    0    0    0  501 0.00000000E+00 0.00000000E+00 -.98848655E+00 0.98848655E+00 0.00000000E+00 0.0000E+00 0.9000E+01
       23  2    1    2    0    0 0.00000000E+00 0.00000000E+00 0.20502187E+04 0.20521956E+04 0.90057552E+02 0.0000E+00 0.0000E+00
      -11  1    3    3    0    0 0.29296582E+02 0.32393339E+01 0.24939055E+03 0.25112632E+03 0.00000000E+00 0.0000E+00 0.9000E+01
       11  1    3    3    0    0 -.29296582E+02 -.32393339E+01 0.18008281E+04 0.18010693E+04 0.00000000E+00 0.0000E+00 0.9000E+01
#aMCatNLO 1  0  0  1  2 0.84508847D+02 0.00000000D+00  -5  5  0 0.00000000D+00 0.00000000D+00 0.00000000D+00 0.00000000D+00 0.00000000D+00
  <mgrwgt>
 0.4217978655D+03    5    2    0
 0.450287761401640D+02 0.000000000000000D+00 0.000000000000000D+00 0.450287761401640D+02
 0.450287761401640D+02 0.000000000000000D+00 0.000000000000000D+00 -.450287761401640D+02
 0.450287761401640D+02 0.292965817886315D+02 0.323933387161437D+01 -.340412645512948D+02
 0.450287761401640D+02 -.292965817886315D+02 -.323933387161437D+01 0.340412645512948D+02
 0.000000000000000D+00 -.000000000000000D+00 -.000000000000000D+00 -.000000000000000D+00
 0.711355937688982D+02 0.000000000000000D+00 0.000000000000000D+00 0.711355937688982D+02
 0.891131933229813D+02 0.000000000000000D+00 0.000000000000000D+00 -.891131933229813D+02
 0.623267450066593D+02 0.436539795205533D+02 0.286381829537595D+02 -.340412645512948D+02
 0.420947704654896D+02 -.176449462037018D+02 0.173729065432207D+02 0.340412645512948D+02
 0.558272716197306D+02 -.260090333168515D+02 -.460110894969802D+02 -.179775995540831D+02
0.222131087233D-01 0.000000000000D+00 0.000000000000D+00 0.559979883856D+00 0.000000000000D+00  5 2 -2 -11 11 21 0 0.31557033D+00 0.15207485D-03 0.86878299D+03 0.81103627D+04 0.81103627D+04 0.12188759D+01  1  2  2  1  5  1        2 0.433299712291D+03
-.964630228796D-03 0.000000000000D+00 -.853041863433D-04 0.559979883856D+00 0.000000000000D+00  5 2 -2 -11 11 21 2 0.31557033D+00 0.15207485D-03 0.86878299D+03 0.81103627D+04 0.81103627D+04 0.12188759D+01  1  2  3  1  5  1        2 -.334771784795D+02
0.758293292357D-03 0.000000000000D+00 0.000000000000D+00 0.559979883856D+00 0.000000000000D+00  5 2 -2 -11 11 21 2 0.31557033D+00 0.15207485D-03 0.86878299D+03 0.81103627D+04 0.81103627D+04 0.12188759D+01  1  2 15  1  5  1        2 0.219753213078D+02
0.375317153557D-04 0.000000000000D+00 0.000000000000D+00 0.559979883856D+00 0.000000000000D+00  5 2 -2 -11 11 21 2 0.98660849D+00 0.15207485D-03 0.42136281D+04 0.10903853D+05 0.10903853D+05 0.12054559D+01  1  2 12  1  5  1        2 0.103594992655D-04
0.490575065559D-05 0.000000000000D+00 0.000000000000D+00 0.559979883856D+00 0.000000000000D+00  5 21 -2 -11 11 -2 2 0.98660849D+00 0.15207485D-03 0.42136281D+04 0.10903853D+05 0.10903853D+05 0.12054559D+01  1  2 12  3  5  1        2 0.180759730595D-07
  </mgrwgt>
  </event>
  <event npLO=' -1 ' npNLO=' 0 '>
  5     66 0.12487420E+02 0.47812886E+02 0.75467711E-02 0.11778402E+00
        2 -1    0    0  501    0 0.00000000E+00 0.00000000E+00 0.36252167E+03 0.36252167E+03 0.00000000E+00 0.0000E+00 0.9000E+01
       -2 -1    0    0    0  501 0.00000000E+00 0.00000000E+00 -.56387161E+01 0.56387161E+01 0.00000000E+00 0.0000E+00 0.9000E+01
       23  2    1    2    0    0 0.00000000E+00 0.00000000E+00 0.35688295E+03 0.36816038E+03 0.90424704E+02 0.0000E+00 0.0000E+00
      -13  1    3    3    0    0 0.41300652E+02 -.28787426E+01 0.10446568E+03 0.11237041E+03 0.00000000E+00 0.0000E+00 0.9000E+01
       13  1    3    3    0    0 -.41300652E+02 0.28787426E+01 0.25241728E+03 0.25578998E+03 0.00000000E+00 0.0000E+00 0.9000E+01
#aMCatNLO 1  0  0  1  2 0.22477652D+02 0.00000000D+00  -5  5  0 0.00000000D+00 0.00000000D+00 0.00000000D+00 0.00000000D+00 0.00000000D+00
  <mgrwgt>
 0.5336765458D+03    9    2    0
 0.452123519268739D+02 0.000000000000000D+00 0.000000000000000D+00 0.452123519268739D+02
 0.452123519268739D+02 0.000000000000000D+00 0.000000000000000D+00 -.452123519268739D+02
 0.452123519268739D+02 0.413006519266529D+02 -.287874261521481D+01 -.181693631739889D+02
 0.452123519268739D+02 -.413006519266529D+02 0.287874261521481D+01 0.181693631739889D+02
 0.000000000000000D+00 -.000000000000000D+00 0.000000000000000D+00 0.000000000000000D+00
 0.608949553223133D+02 0.000000000000000D+00 0.000000000000000D+00 0.608949553223133D+02
 0.520067527133555D+02 0.000000000000000D+00 0.000000000000000D+00 -.520067527133555D+02
 0.519021040641459D+02 0.474481988324104D+02 -.106005224256717D+02 -.181693631739889D+02
 0.404101512659779D+02 -.358805695177569D+02 -.392928724736801D+01 0.181693631739889D+02
 0.205894527055451D+02 -.115676293146535D+02 0.145298096730397D+02 0.888820260895785D+01
0.164495686520D-01 0.000000000000D+00 0.000000000000D+00 0.558850447429D+00 0.000000000000D+00  5 2 -2 -13 13 21 0 0.55772564D-01 0.86749478D-03 0.17140310D+04 0.81766271D+04 0.81766271D+04 0.12185006D+01  1  2  2  1  5  1        2 0.342333708029D+03
-.905246916019D-03 0.000000000000D+00 -.631706748944D-04 0.558850447429D+00 0.000000000000D+00  5 2 -2 -13 13 21 2 0.55772564D-01 0.86749478D-03 0.17140310D+04 0.81766271D+04 0.81766271D+04 0.12185006D+01  1  2  3  1  5  1        2 -.310211115793D+02
0.888927353356D-03 0.000000000000D+00 0.000000000000D+00 0.558850447429D+00 0.000000000000D+00  5 2 -2 -13 13 21 2 0.55772564D-01 0.86749478D-03 0.17140310D+04 0.81766271D+04 0.81766271D+04 0.12185006D+01  1  2 15  1  5  1        2 0.274671077559D+02
0.121778508435D-01 0.000000000000D+00 0.000000000000D+00 0.558850447429D+00 0.000000000000D+00  5 2 -2 -13 13 21 2 0.86406710D-01 0.86749478D-03 0.26669566D+04 0.85215525D+04 0.85215525D+04 0.12166009D+01  1  2 12  1  5  1        2 0.235099349789D+03
-.127600988680D-01 0.000000000000D+00 0.000000000000D+00 0.558850447429D+00 0.000000000000D+00  5 2 -2 -13 13 21 2 0.55772564D-01 0.86749478D-03 0.17140310D+04 0.81766271D+04 0.81766271D+04 0.12185006D+01  1  2  4  1  5  1        2 -.394276325574D+03
-.189053674530D-01 0.000000000000D+00 -.790357803942D-02 0.558850447429D+00 0.000000000000D+00  5 2 -2 -13 13 21 2 0.84120436D-01 0.86749478D-03 0.17140310D+04 0.81766271D+04 0.81766271D+04 0.12185006D+01  1  2  5  1  5  1        2 -.621390736994D+03
0.209801732558D-01 0.000000000000D+00 0.728009342501D-02 0.558850447429D+00 0.000000000000D+00  5 2 -2 -13 13 21 2 0.55772564D-01 0.86749478D-03 0.17140310D+04 0.81766271D+04 0.81766271D+04 0.12185006D+01  1  2  6  1  5  1        2 0.999736819924D+03
0.619813556258D-03 0.000000000000D+00 0.000000000000D+00 0.558850447429D+00 0.000000000000D+00  5 21 -2 -13 13 -2 2 0.86406710D-01 0.86749478D-03 0.26669566D+04 0.85215525D+04 0.85215525D+04 0.12166009D+01  1  2 12  3  5  1        2 0.214003505987D+02
-.638231474087D-03 0.000000000000D+00 -.383774324340D-03 0.558850447429D+00 0.000000000000D+00  5 21 -2 -13 13 -2 2 0.84120436D-01 0.86749478D-03 0.17140310D+04 0.81766271D+04 0.81766271D+04 0.12185006D+01  1  2  5  3  5  1        2 -.456726161391D+02
  </mgrwgt>
  </event>
  <event npLO=' -1 ' npNLO=' 0 '>
  5     66 0.12487420E+02 0.88666284E+02 0.75467711E-02 0.10860747E+00
        2 -1    0    0  501    0 0.00000000E+00 0.00000000E+00 0.43138920E+03 0.43138920E+03 0.00000000E+00 0.0000E+00 0.9000E+01
       -2 -1    0    0    0  501 0.00000000E+00 0.00000000E+00 -.45560425E+01 0.45560425E+01 0.00000000E+00 0.0000E+00 0.9000E+01
       23  2    1    2    0    0 0.00000000E+00 0.00000000E+00 0.42683315E+03 0.43594524E+03 0.88666284E+02 0.0000E+00 0.0000E+00
      -11  1    3    3    0    0 -.21768345E+02 0.22596640E+02 0.36740879E+03 0.36874610E+03 0.00000000E+00 0.0000E+00 0.9000E+01
       11  1    3    3    0    0 0.21768345E+02 -.22596640E+02 0.59424365E+02 0.67199137E+02 0.00000000E+00 0.0000E+00 0.9000E+01
#aMCatNLO 1  0  0  1  2 0.22146228D+03 0.00000000D+00  -5  5  0 0.00000000D+00 0.00000000D+00 0.00000000D+00 0.00000000D+00 0.00000000D+00
  <mgrwgt>
 0.5144301563D+03    3    2    0
 0.443331422436186D+02 0.000000000000000D+00 0.000000000000000D+00 0.443331422436186D+02
 0.443331422436186D+02 0.000000000000000D+00 0.000000000000000D+00 -.443331422436186D+02
 0.443331422436186D+02 -.217683445271244D+02 0.225966397175784D+02 0.313202578408175D+02
 0.443331422436186D+02 0.217683445271244D+02 -.225966397175784D+02 -.313202578408175D+02
 0.000000000000000D+00 -.000000000000000D+00 0.000000000000000D+00 -.000000000000000D+00
 0.123009795468893D+03 0.000000000000000D+00 0.000000000000000D+00 0.123009795468893D+03
 0.189757478807230D+03 0.000000000000000D+00 0.000000000000000D+00 -.189757478807230D+03
 0.353338916967364D+02 0.161955329706254D+02 0.228693310326082D+01 0.313202578408175D+02
 0.126495418716480D+03 0.103173591348055D+03 -.661463714302361D+02 -.313202578408175D+02
 0.150937963862907D+03 -.119369124318680D+03 0.638594383269753D+02 -.667476833383374D+02
0.225888365792D-01 0.000000000000D+00 0.000000000000D+00 0.172818035928D+00 0.000000000000D+00  5 2 -2 -11 11 21 0 0.66367568D-01 0.70092961D-03 0.98446895D+03 0.78617100D+04 0.78617100D+04 0.12203153D+01  1  2  2  1  5  1        2 0.521355764352D+03
-.107260678220D-02 0.000000000000D+00 -.867470802415D-04 0.172818035928D+00 0.000000000000D+00  5 2 -2 -11 11 21 2 0.66367568D-01 0.70092961D-03 0.98446895D+03 0.78617100D+04 0.78617100D+04 0.12203153D+01  1  2  3  1  5  1        2 -.430605092546D+02
0.105133819517D-02 0.000000000000D+00 0.000000000000D+00 0.172818035928D+00 0.000000000000D+00  5 2 -2 -11 11 21 2 0.66367568D-01 0.70092961D-03 0.98446895D+03 0.78617100D+04 0.78617100D+04 0.12203153D+01  1  2 15  1  5  1        2 0.361349012240D+02
  </mgrwgt>
  </event>
  <event npLO=' -1 ' npNLO=' 0 '>
  6     66 0.12487420E+02 0.92163437E+02 0.75467711E-02 0.11512323E+00
        2 -1    0    0  501    0 0.00000000E+00 0.00000000E+00 0.87030790E+03 0.87030790E+03 0.00000000E+00 0.0000E+00 0.9000E+01
       21 -1    0    0  502  501 0.00000000E+00 0.00000000E+00 -.12665071E+02 0.12665071E+02 0.00000000E+00 0.0000E+00 0.9000E+01
       23  2    1    2    0    0 -.13230317E+02 0.53956732E+02 0.78063437E+03 0.78801681E+03 0.92163437E+02 0.0000E+00 0.0000E+00
      -11  1    3    3    0    0 0.10196582E+02 -.19227627E+02 0.34281780E+03 0.34350796E+03 0.00000000E+00 0.0000E+00 0.9000E+01
       11  1    3    3    0    0 -.23426899E+02 0.73184359E+02 0.43781656E+03 0.44450885E+03 0.00000000E+00 0.0000E+00 0.9000E+01
        2  1    1    2  502    0 0.13230317E+02 -.53956732E+02 0.77008465E+02 0.94956168E+02 0.00000000E+00 0.0000E+00 0.9000E+01
#aMCatNLO 2  0  0  2  1 0.59301868D+02 0.00000000D+00  -5  5  0 0.00000000D+00 0.00000000D+00 0.00000000D+00 0.00000000D+00 0.00000000D+00
  <mgrwgt>
 0.3655709632D+03    2    2    0
 0.460817186573045D+02 0.000000000000000D+00 0.000000000000000D+00 0.460817186573045D+02
 0.460817186573045D+02 0.000000000000000D+00 0.000000000000000D+00 -.460817186573045D+02
 0.460817186573045D+02 0.151405670220551D+02 -.393905069661595D+02 0.185115095443499D+02
 0.460817186573045D+02 -.151405670220551D+02 0.393905069661595D+02 -.185115095443499D+02
 0.000000000000000D+00 0.000000000000000D+00 -.000000000000000D+00 -.000000000000000D+00
 0.597048527071008D+02 0.000000000000000D+00 0.000000000000000D+00 0.597048527071008D+02
 0.184616669350245D+03 0.000000000000000D+00 0.000000000000000D+00 -.184616669350245D+03
 0.285718024984410D+02 0.101965815073035D+02 -.192276269457331D+02 0.185115095443499D+02
 0.790407871297238D+02 -.234268989539400D+02 0.731843593254572D+02 -.185115095443499D+02
 0.136708932429181D+03 0.132303174466366D+02 -.539567323797241D+02 -.124911816643144D+03
-.138083653470D-02 0.000000000000D+00 0.000000000000D+00 0.406275467239D+00 0.000000000000D+00  5 2 21 -11 11 2 2 0.10334242D+00 0.25244991D-02 0.59414510D+04 0.11580469D+05 0.11580469D+05 0.12027806D+01  1  2 13  4  5  2       -2 -.852933560100D+02
0.665722695691D-02 0.000000000000D+00 0.000000000000D+00 0.406275467239D+00 0.715587503508D-03  5 2 21 -11 11 2 2 0.13389352D+00 0.19484724D-02 0.59414510D+04 0.11580469D+05 0.11580469D+05 0.12027806D+01  1  2  1  4  5  2       -2 0.450864319240D+03
  </mgrwgt>
  </event>
  <event npLO=' -1 ' npNLO=' 0 '>
  5     66 -.12487420E+02 0.55677103E+02 0.75467711E-02 0.11827134E+00
        2 -1    0    0  501    0 0.00000000E+00 0.00000000E+00 0.42989975E+03 0.42989975E+03 0.00000000E+00 0.0000E+00 0.9000E+01
       -2 -1    0    0    0  501 0.00000000E+00 0.00000000E+00 -.46816928E+01 0.46816928E+01 0.00000000E+00 0.0000E+00 0.9000E+01
       23  2    1    2    0    0 0.00000000E+00 0.00000000E+00 0.42521805E+03 0.43458144E+03 0.89725326E+02 0.0000E+00 0.0000E+00
      -13  1    3    3    0    0 -.22111146E+01 -.31746848E+02 0.36576572E+03 0.36714753E+03 0.00000000E+00 0.0000E+00 0.9000E+01
       13  1    3    3    0    0 0.22111146E+01 0.31746848E+02 0.59452339E+02 0.67433908E+02 0.00000000E+00 0.0000E+00 0.9000E+01
#aMCatNLO 1  0  0  2  1 0.42202643D+01 0.00000000D+00  -5  5  0 0.00000000D+00 0.00000000D+00 0.00000000D+00 0.00000000D+00 0.00000000D+00
  <mgrwgt>
 -.5857541593D+03    9    2    0
 0.448626630568402D+02 0.000000000000000D+00 0.000000000000000D+00 0.448626630568402D+02
 0.448626630568402D+02 0.000000000000000D+00 0.000000000000000D+00 -.448626630568402D+02
 0.448626630568402D+02 -.221111460291969D+01 -.317468478796467D+02 0.316213086141434D+02
 0.448626630568402D+02 0.221111460291969D+01 0.317468478796467D+02 -.316213086141434D+02
 0.000000000000000D+00 -.000000000000000D+00 -.000000000000000D+00 -.000000000000000D+00
 0.449155039612196D+02 0.000000000000000D+00 0.000000000000000D+00 0.449155039612196D+02
 0.141629643519299D+04 0.000000000000000D+00 0.000000000000000D+00 -.141629643519299D+04
 0.435068240615960D+02 -.136282877260731D+01 -.298509510600973D+02 0.316213086141434D+02
 0.463176906760950D+02 0.308638280461081D+01 0.337030495990930D+02 -.316213086141434D+02
 0.137138742441652D+04 -.172355403200349D+01 -.385209853899570D+01 -.137138093123177D+04
0.164985786173D-02 0.000000000000D+00 0.000000000000D+00 0.357672180013D+00 0.000000000000D+00  5 2 -2 -13 13 21 0 0.66138423D-01 0.72026043D-03 0.10127514D+04 0.80506341D+04 0.80506341D+04 0.12192171D+01  1  2  2  2  5  2       -2 0.368975115272D+02
-.785174778910D-04 0.000000000000D+00 -.633588860660D-05 0.357672180013D+00 0.000000000000D+00  5 2 -2 -13 13 21 2 0.66138423D-01 0.72026043D-03 0.10127514D+04 0.80506341D+04 0.80506341D+04 0.12192171D+01  1  2  3  2  5  2       -2 -.304688386788D+01
0.756067313360D-04 0.000000000000D+00 0.000000000000D+00 0.357672180013D+00 0.000000000000D+00  5 2 -2 -13 13 21 2 0.66138423D-01 0.72026043D-03 0.10127514D+04 0.80506341D+04 0.80506341D+04 0.12192171D+01  1  2 15  2  5  2       -2 0.251346637288D+01
0.311946034904D+01 0.000000000000D+00 0.000000000000D+00 0.357672180013D+00 0.000000000000D+00  5 2 -2 -13 13 21 2 0.66138423D-01 0.22765117D-01 0.11541724D+04 0.80684434D+04 0.80684434D+04 0.12191150D+01  1  2 12  2  5  2       -2 0.671045767559D+03
-.212502741250D+02 0.000000000000D+00 -.317510899774D-02 0.357672180013D+00 0.000000000000D+00  5 2 -2 -13 13 21 2 0.66138423D-01 0.22739795D-01 0.10127514D+04 0.80506341D+04 0.80506341D+04 0.12192171D+01  1  2  5  2  5  2       -2 -.458170429693D+04
0.176505529173D+02 0.000000000000D+00 0.000000000000D+00 0.357672180013D+00 0.244580167392D+01  5 2 -2 -13 13 21 2 0.66216323D-01 0.22738335D-01 0.11541724D+04 0.80684434D+04 0.80684434D+04 0.12191150D+01  1  2 11  2  5  2       -2 0.379947055169D+04
0.106231118169D+01 0.000000000000D+00 0.000000000000D+00 0.357672180013D+00 0.000000000000D+00  5 2 21 -13 13 2 2 0.66138423D-01 0.22765117D-01 0.11541724D+04 0.80684434D+04 0.80684434D+04 0.12191150D+01  1  2 12  4  5  2       -2 0.289061009183D+04
-.723679138239D+01 0.000000000000D+00 -.108114418281D-02 0.357672180013D+00 0.000000000000D+00  5 2 21 -13 13 2 2 0.66138423D-01 0.22739795D-01 0.10127514D+04 0.80506341D+04 0.80506341D+04 0.12192171D+01  1  2  5  4  5  2       -2 -.197411075465D+05
0.599964299108D+01 0.000000000000D+00 0.000000000000D+00 0.357672180013D+00 0.831357945273D+00  5 2 21 -13 13 2 2 0.66216323D-01 0.22738335D-01 0.11541724D+04 0.80684434D+04 0.80684434D+04 0.12191150D+01  1  2 11  4  5  2       -2 0.163395671790D+05
  </mgrwgt>
  </event>
  <event npLO=' -1 ' npNLO=' 0 '>
  5     66 0.12487420E+02 0.70175461E+02 0.75467711E-02 0.11670745E+00
        4 -1    0    0  501    0 0.00000000E+00 0.00000000E+00 0.17888239E+03 0.17888239E+03 0.00000000E+00 0.0000E+00 0.9000E+01
       -4 -1    0    0    0  501 0.00000000E+00 0.00000000E+00 -.11102584E+02 0.11102584E+02 0.00000000E+00 0.0000E+00 0.9000E+01
       23  2    1    2    0    0 0.00000000E+00 0.00000000E+00 0.16777980E+03 0.18998497E+03 0.89130394E+02 0.0000E+00 0.0000E+00
      -13  1    3    3    0    0 -.11747516E+02 -.40849503E+02 0.11243748E+03 0.12020346E+03 0.00000000E+00 0.0000E+00 0.9000E+01
       13  1    3    3    0    0 0.11747516E+02 0.40849503E+02 0.55342323E+02 0.69781507E+02 0.00000000E+00 0.0000E+00 0.9000E+01
#aMCatNLO 1  0  0  2  1 0.61942672D+02 0.00000000D+00  -5  5  0 0.00000000D+00 0.00000000D+00 0.00000000D+00 0.00000000D+00 0.00000000D+00
  <mgrwgt>
 0.6950707670D+02    5    2    0
 0.445651971222003D+02 0.000000000000000D+00 0.000000000000000D+00 0.445651971222003D+02
 0.445651971222003D+02 0.000000000000000D+00 0.000000000000000D+00 -.445651971222003D+02
 0.445651971222003D+02 -.117475155757928D+02 -.408495028636898D+02 0.133929379945726D+02
 0.445651971222003D+02 0.117475155757928D+02 0.408495028636898D+02 -.133929379945726D+02
 0.000000000000000D+00 0.000000000000000D+00 0.000000000000000D+00 0.000000000000000D+00
 0.734637119176501D+02 0.000000000000000D+00 0.000000000000000D+00 0.734637119176501D+02
 0.663553195863666D+02 0.000000000000000D+00 0.000000000000000D+00 -.663553195863666D+02
 0.650699041713110D+02 -.305028207435353D+02 -.558954342269999D+02 0.133929379945726D+02
 0.330678786903864D+02 -.153319480616336D+01 0.301954156560561D+02 -.133929379945726D+02
 0.416812486423193D+02 0.320360155496987D+02 0.257000185709438D+02 0.710839233128349D+01
0.228970982306D-01 0.000000000000D+00 0.000000000000D+00 0.169669953137D+00 0.000000000000D+00  5 4 -4 -13 13 21 0 0.27520367D-01 0.17080899D-02 0.18066860D+04 0.79442272D+04 0.79442272D+04 0.12198320D+01  1  2  2  2  5  2       -4 0.660144774232D+02
-.126859656285D-02 0.000000000000D+00 -.879308861499D-04 0.169669953137D+00 0.000000000000D+00  5 4 -4 -13 13 21 2 0.27520367D-01 0.17080899D-02 0.18066860D+04 0.79442272D+04 0.79442272D+04 0.12198320D+01  1  2  3  2  5  2       -4 -.600094970270D+01
0.112266818128D-02 0.000000000000D+00 0.000000000000D+00 0.169669953137D+00 0.000000000000D+00  5 4 -4 -13 13 21 2 0.27520367D-01 0.17080899D-02 0.18066860D+04 0.79442272D+04 0.79442272D+04 0.12198320D+01  1  2 15  2  5  2       -4 0.481626320418D+01
0.125086976406D-02 0.000000000000D+00 0.000000000000D+00 0.169669953137D+00 0.000000000000D+00  5 4 -4 -13 13 21 2 0.27520367D-01 0.41924479D-02 0.45550114D+04 0.96310244D+04 0.96310244D+04 0.12110281D+01  1  2 12  2  5  2       -4 0.138625128944D+01
0.123283270320D-03 0.000000000000D+00 0.000000000000D+00 0.169669953137D+00 0.000000000000D+00  5 4 21 -13 13 4 2 0.27520367D-01 0.41924479D-02 0.45550114D+04 0.96310244D+04 0.96310244D+04 0.12110281D+01  1  2 12  4  5  2       -4 0.329103448944D+01
  </mgrwgt>
  </event>
  <event npLO=' -1 ' npNLO=' 0 '>
  5     66 0.12487420E+02 0.65527791E+02 0.75467711E-02 0.11658816E+00
        2 -1    0    0  501    0 0.00000000E+00 0.00000000E+00 0.64355286E+03 0.64355286E+03 0.00000000E+00 0.0000E+00 0.9000E+01
       -2 -1    0    0    0  501 0.00000000E+00 0.00000000E+00 -.32944963E+01 0.32944963E+01 0.00000000E+00 0.0000E+00 0.9000E+01
       23  2    1    2    0    0 0.00000000E+00 0.00000000E+00 0.64025837E+03 0.64684736E+03 0.92090880E+02 0.0000E+00 0.0000E+00
      -11  1    3    3    0    0 -.35812699E+02 0.10129882E+02 0.12969962E+03 0.13493390E+03 0.00000000E+00 0.0000E+00 0.9000E+01
       11  1    3    3    0    0 0.35812699E+02 -.10129882E+02 0.51055874E+03 0.51191346E+03 0.00000000E+00 0.0000E+00 0.9000E+01
#aMCatNLO 1  0  0  2  1 0.50886945D+02 0.00000000D+00  -5  5  0 0.00000000D+00 0.00000000D+00 0.00000000D+00 0.00000000D+00 0.00000000D+00
  <mgrwgt>
 0.5268656151D+03    5    2    0
 0.460454398929295D+02 0.000000000000000D+00 0.000000000000000D+00 0.460454398929295D+02
 0.460454398929295D+02 0.000000000000000D+00 0.000000000000000D+00 -.460454398929295D+02
 0.460454398929295D+02 -.358126987756183D+02 0.101298820526225D+02 -.271112270275648D+02
 0.460454398929295D+02 0.358126987756183D+02 -.101298820526225D+02 0.271112270275648D+02
 0.000000000000000D+00 -.000000000000000D+00 -.000000000000000D+00 0.000000000000000D+00
 0.675360670063490D+02 0.000000000000000D+00 0.000000000000000D+00 0.675360670063490D+02
 0.671009177331902D+02 0.000000000000000D+00 0.000000000000000D+00 -.671009177331902D+02
 0.474248194995079D+02 -.287739271642913D+02 0.261945793851476D+02 -.271112270275648D+02
 0.513877708747942D+02 0.431499001743317D+02 0.661592620011723D+01 0.271112270275648D+02
 0.358243943652372D+02 -.143759730100404D+02 -.328105055852648D+02 0.435149273158782D+00
0.190594909199D-01 0.000000000000D+00 0.000000000000D+00 0.694799549944D+00 0.000000000000D+00  5 2 -2 -11 11 21 0 0.99008133D-01 0.50684559D-03 0.13851639D+04 0.84807301D+04 0.84807301D+04 0.12168212D+01  1  2  2  2  5  2       -2 0.445139457630D+03
-.100053834384D-02 0.000000000000D+00 -.731934636116D-04 0.694799549944D+00 0.000000000000D+00  5 2 -2 -11 11 21 2 0.99008133D-01 0.50684559D-03 0.13851639D+04 0.84807301D+04 0.84807301D+04 0.12168212D+01  1  2  3  2  5  2       -2 -.391859890656D+02
0.102392037944D-02 0.000000000000D+00 0.000000000000D+00 0.694799549944D+00 0.000000000000D+00  5 2 -2 -11 11 21 2 0.99008133D-01 0.50684559D-03 0.13851639D+04 0.84807301D+04 0.84807301D+04 0.12168212D+01  1  2 15  2  5  2       -2 0.354082531364D+02
0.272238783997D-02 0.000000000000D+00 0.000000000000D+00 0.694799549944D+00 0.000000000000D+00  5 2 -2 -11 11 21 2 0.99008133D-01 0.10833446D-02 0.35038863D+04 0.97639280D+04 0.97639280D+04 0.12104090D+01  1  2 12  2  5  2       -2 0.332389840031D+02
0.223775083208D-03 0.000000000000D+00 0.000000000000D+00 0.694799549944D+00 0.000000000000D+00  5 2 21 -11 11 2 2 0.99008133D-01 0.10833446D-02 0.35038863D+04 0.97639280D+04 0.97639280D+04 0.12104090D+01  1  2 12  4  5  2       -2 0.522649094335D+02
  </mgrwgt>
  </event>
  <event npLO=' -1 ' npNLO=' 0 '>
  6     66 0.12487420E+02 0.91784124E+02 0.75467711E-02 0.11767671E+00
        2 -1    0    0  501    0 0.00000000E+00 0.00000000E+00 0.78788743E+01 0.78788743E+01 0.00000000E+00 0.0000E+00 0.9000E+01
       21 -1    0    0  502  501 0.00000000E+00 0.00000000E+00 -.36526810E+03 0.36526810E+03 0.00000000E+00 0.0000E+00 0.9000E+01
       23  2    1    2    0    0 -.14083323E+02 0.16074643E+01 -.30089731E+03 0.31490386E+03 0.91784124E+02 0.0000E+00 0.0000E+00
      -13  1    3    3    0    0 -.42496943E+02 0.13961800E+02 -.25878108E+03 0.26261867E+03 0.00000000E+00 0.0000E+00 0.9000E+01
       13  1    3    3    0    0 0.28413620E+02 -.12354336E+02 -.42116229E+02 0.52285182E+02 0.00000000E+00 0.0000E+00 0.9000E+01
        2  1    1    2  502    0 0.14083323E+02 -.16074643E+01 -.56491920E+02 0.58243119E+02 0.00000000E+00 0.0000E+00 0.9000E+01
#aMCatNLO 2  0  0  2  1 0.18522890D+02 0.00000000D+00  -5  5  0 0.00000000D+00 0.00000000D+00 0.00000000D+00 0.00000000D+00 0.00000000D+00
  <mgrwgt>
 0.3455455098D+02    2    2    0
 0.458920618520490D+02 0.000000000000000D+00 0.000000000000000D+00 0.458920618520490D+02
 0.458920618520490D+02 0.000000000000000D+00 0.000000000000000D+00 -.458920618520490D+02
 0.458920618520490D+02 -.350278582823688D+02 0.131092823001429D+02 -.265946837311094D+02
 0.458920618520490D+02 0.350278582823688D+02 -.131092823001429D+02 0.265946837311094D+02
 0.000000000000000D+00 0.000000000000000D+00 -.000000000000000D+00 -.000000000000000D+00
 0.522418861737705D+02 0.000000000000000D+00 0.000000000000000D+00 0.522418861737705D+02
 0.550880081638702D+02 0.000000000000000D+00 0.000000000000000D+00 -.550880081638702D+02
 0.520403619961772D+02 -.424969434663251D+02 0.139618003837399D+02 -.265946837311094D+02
 0.408318582519899D+02 0.284136204100626D+02 -.123543361110882D+02 0.265946837311094D+02
 0.144576740894736D+02 0.140833230562625D+02 -.160746427265166D+01 -.284612199009976D+01
-.108470980775D-02 0.000000000000D+00 0.000000000000D+00 0.836601304307D+00 0.000000000000D+00  5 2 21 -13 13 2 2 0.10648037D-02 0.63970489D-01 0.20200399D+04 0.86252493D+04 0.86252493D+04 0.12160465D+01  1  2 13  4  5  2       -2 -.593073271878D+02
0.154201777093D-02 0.000000000000D+00 0.000000000000D+00 0.836601304307D+00 0.112591848272D-02  5 2 21 -13 13 2 2 0.12121345D-02 0.56195092D-01 0.20200399D+04 0.86252493D+04 0.86252493D+04 0.12160465D+01  1  2  1  4  5  2       -2 0.938618781703D+02
  </mgrwgt>
  </event>
  <event npLO=' -1 ' npNLO=' 0 '>
  5     66 0.12487420E+02 0.91298567E+02 0.75467711E-02 0.11293239E+00
        4 -1    0    0  501    0 0.00000000E+00 0.00000000E+00 0.18424417E+03 0.18424417E+03 0.00000000E+00 0.0000E+00 0.9000E+01
       -4 -1    0    0    0  501 0.00000000E+00 0.00000000E+00 -.11310302E+02 0.11310302E+02 0.00000000E+00 0.0000E+00 0.9000E+01
       23  2    1    2    0    0 0.00000000E+00 0.00000000E+00 0.17293387E+03 0.19555447E+03 0.91298567E+02 0.0000E+00 0.0000E+00
      -13  1    3    3    0    0 0.31272840E+02 0.10684493E+02 0.19014793E+02 0.38127566E+02 0.00000000E+00 0.0000E+00 0.9000E+01
       13  1    3    3    0    0 -.31272840E+02 -.10684493E+02 0.15391907E+03 0.15742690E+03 0.00000000E+00 0.0000E+00 0.9000E+01
#aMCatNLO 1  0  0  2  1 0.92779386D+02 0.00000000D+00  -5  5  0 0.00000000D+00 0.00000000D+00 0.00000000D+00 0.00000000D+00 0.00000000D+00
  <mgrwgt>
 0.4947818122D+02    5    2    0
 0.456492836439244D+02 0.000000000000000D+00 0.000000000000000D+00 0.456492836439244D+02
 0.456492836439244D+02 0.000000000000000D+00 0.000000000000000D+00 -.456492836439244D+02
 0.456492836439244D+02 0.312728401256948D+02 0.106844927016573D+02 -.314913985618999D+02
 0.456492836439244D+02 -.312728401256948D+02 -.106844927016573D+02 0.314913985618999D+02
 0.000000000000000D+00 0.000000000000000D+00 0.000000000000000D+00 -.000000000000000D+00
 0.752609250104111D+02 0.000000000000000D+00 0.000000000000000D+00 0.752609250104111D+02
 0.182796072739860D+03 0.000000000000000D+00 0.000000000000000D+00 -.182796072739860D+03
 0.477839938017166D+02 0.260497281968741D+02 -.247591102652548D+02 -.314913985618999D+02
 0.749893373458909D+02 -.380167865824053D+02 -.564483522358203D+02 0.314913985618999D+02
 0.135283666602663D+03 0.119670583855312D+02 0.812074625010750D+02 -.107535147729449D+03
0.248068867489D-01 0.000000000000D+00 0.000000000000D+00 0.109435437856D+01 0.000000000000D+00  5 4 -4 -13 13 21 0 0.28345257D-01 0.17400464D-02 0.10921489D+04 0.83354284D+04 0.83354284D+04 0.12176151D+01  1  2  2  2  5  2       -4 0.661737742469D+02
-.120330262958D-02 0.000000000000D+00 -.952649769189D-04 0.109435437856D+01 0.000000000000D+00  5 4 -4 -13 13 21 2 0.28345257D-01 0.17400464D-02 0.10921489D+04 0.83354284D+04 0.83354284D+04 0.12176151D+01  1  2  3  2  5  2       -4 -.552463992253D+01
0.127253440080D-02 0.000000000000D+00 0.000000000000D+00 0.109435437856D+01 0.000000000000D+00  5 4 -4 -13 13 21 2 0.28345257D-01 0.17400464D-02 0.10921489D+04 0.83354284D+04 0.83354284D+04 0.12176151D+01  1  2 15  2  5  2       -4 0.503272487700D+01
0.148654409513D-01 0.000000000000D+00 -.115540437958D-01 0.109435437856D+01 0.000000000000D+00  5 4 -4 -13 13 21 2 0.28345257D-01 0.11390787D-01 0.10921489D+04 0.83354284D+04 0.83354284D+04 0.12176151D+01  1  2  5  2  5  2       -4 -.176489584449D+01
0.248425175979D-02 0.000000000000D+00 -.265865372489D-02 0.109435437856D+01 0.000000000000D+00  5 4 21 -13 13 4 2 0.28345257D-01 0.11390787D-01 0.10921489D+04 0.83354284D+04 0.83354284D+04 0.12176151D+01  1  2  5  4  5  2       -4 -.144387821341D+02
  </mgrwgt>
  </event>
  <event npLO=' -1 ' npNLO=' 0 '>
  5     66 0.12487420E+02 0.95315657E+02 0.75467711E-02 0.11652039E+00
        2 -1    0    0  501    0 0.00000000E+00 0.00000000E+00 0.60177823E+03 0.60177823E+03 0.00000000E+00 0.0000E+00 0.9000E+01
       -2 -1    0    0    0  501 0.00000000E+00 0.00000000E+00 -.37742619E+01 0.37742619E+01 0.00000000E+00 0.0000E+00 0.9000E+01
       23  2    1    2    0    0 0.00000000E+00 0.00000000E+00 0.59800397E+03 0.60555249E+03 0.95315657E+02 0.0000E+00 0.0000E+00
      -11  1    3    3    0    0 -.18119663E+02 -.17705940E+02 0.42549121E+02 0.49520200E+02 0.00000000E+00 0.0000E+00 0.9000E+01
       11  1    3    3    0    0 0.18119663E+02 0.17705940E+02 0.55545484E+03 0.55603229E+03 0.00000000E+00 0.0000E+00 0.9000E+01
#aMCatNLO 1  0  0  2  1 0.13306121D+03 0.00000000D+00  -5  5  0 0.00000000D+00 0.00000000D+00 0.00000000D+00 0.00000000D+00 0.00000000D+00
  <mgrwgt>
 0.4579635929D+03    3    2    0
 0.476578286311078D+02 0.000000000000000D+00 0.000000000000000D+00 0.476578286311078D+02
 0.476578286311078D+02 0.000000000000000D+00 0.000000000000000D+00 -.476578286311078D+02
 0.476578286311078D+02 -.181196630884341D+02 -.177059402472317D+02 -.403663983946443D+02
 0.476578286311078D+02 0.181196630884341D+02 0.177059402472317D+02 0.403663983946443D+02
 0.000000000000000D+00 0.000000000000000D+00 -.000000000000000D+00 0.000000000000000D+00
 0.167245811382702D+03 0.000000000000000D+00 0.000000000000000D+00 0.167245811382702D+03
 0.512043354840366D+02 0.000000000000000D+00 0.000000000000000D+00 -.512043354840366D+02
 0.457874802401229D+02 -.210633547337596D+02 -.483552631513002D+01 -.403663983946443D+02
 0.534111645727047D+02 0.149358119728526D+02 0.316263798492493D+02 0.403663983946443D+02
 0.119251502053911D+03 0.612754276090700D+01 -.267908535341193D+02 0.116041475898666D+03
0.220243061487D-01 0.000000000000D+00 0.000000000000D+00 0.147725746704D+00 0.000000000000D+00  5 2 -2 -11 11 21 0 0.92581266D-01 0.58065568D-03 0.64182251D+03 0.90850745D+04 0.90850745D+04 0.12136752D+01  1  2  2  2  5  2       -2 0.463190512658D+03
-.629560063596D-03 0.000000000000D+00 -.845791347441D-04 0.147725746704D+00 0.000000000000D+00  5 2 -2 -11 11 21 2 0.92581266D-01 0.58065568D-03 0.64182251D+03 0.90850745D+04 0.90850745D+04 0.12136752D+01  1  2  3  2  5  2       -2 -.264465064372D+02
0.684974679776D-03 0.000000000000D+00 0.000000000000D+00 0.147725746704D+00 0.000000000000D+00  5 2 -2 -11 11 21 2 0.92581266D-01 0.58065568D-03 0.64182251D+03 0.90850745D+04 0.90850745D+04 0.12136752D+01  1  2 15  2  5  2       -2 0.212195866912D+02
  </mgrwgt>
  </event>
  <event npLO=' -1 ' npNLO=' 0 '>
  5     66 0.12487420E+02 0.43304360E+02 0.75467711E-02 0.11621178E+00
        2 -1    0    0  501    0 0.00000000E+00 0.00000000E+00 0.71279495E+02 0.71279495E+02 0.00000000E+00 0.0000E+00 0.9000E+01
       -2 -1    0    0    0  501 0.00000000E+00 0.00000000E+00 -.29292730E+02 0.29292730E+02 0.00000000E+00 0.0000E+00 0.9000E+01
       23  2    1    2    0    0 0.00000000E+00 0.00000000E+00 0.41986765E+02 0.10057223E+03 0.91388643E+02 0.0000E+00 0.0000E+00
      -13  1    3    3    0    0 0.13908904E+02 0.42070966E+02 0.87118426E+01 0.45158831E+02 0.00000000E+00 0.0000E+00 0.9000E+01
       13  1    3    3    0    0 -.13908904E+02 -.42070966E+02 0.33274923E+02 0.55413395E+02 0.00000000E+00 0.0000E+00 0.9000E+01
#aMCatNLO 1  0  0  2  1 0.53116085D+02 0.00000000D+00  -5  5  0 0.00000000D+00 0.00000000D+00 0.00000000D+00 0.00000000D+00 0.00000000D+00
  <mgrwgt>
 0.2676757680D+03    7    2    0
 0.456943215786257D+02 0.000000000000000D+00 0.000000000000000D+00 0.456943215786257D+02
 0.456943215786257D+02 0.000000000000000D+00 0.000000000000000D+00 -.456943215786257D+02
 0.456943215786257D+02 0.139089038877807D+02 0.420709663439901D+02 -.111600720452061D+02
 0.456943215786257D+02 -.139089038877807D+02 -.420709663439901D+02 0.111600720452061D+02
 0.000000000000000D+00 -.000000000000000D+00 -.000000000000000D+00 -.000000000000000D+00
 0.641055938402136D+02 0.000000000000000D+00 0.000000000000000D+00 0.641055938402136D+02
 0.843770365191249D+02 0.000000000000000D+00 0.000000000000000D+00 -.843770365191249D+02
 0.697539141510111D+02 0.307036494774447D+02 0.616307329187204D+02 -.111600720452061D+02
 0.312277432849254D+02 -.271872413795421D+01 -.290384793278972D+02 0.111600720452061D+02
 0.475009729234020D+02 -.279849253394905D+02 -.325922535908232D+02 -.202714426789113D+02
0.276786807230D-01 0.000000000000D+00 0.000000000000D+00 0.725251704558D+00 0.000000000000D+00  5 2 -2 -13 13 21 0 0.10966076D-01 0.45065739D-02 0.19634238D+04 0.83518841D+04 0.83518841D+04 0.12175244D+01  1  2  2  2  5  2       -2 0.349416868607D+03
-.153593646545D-02 0.000000000000D+00 -.106293421940D-03 0.725251704558D+00 0.000000000000D+00  5 2 -2 -13 13 21 2 0.10966076D-01 0.45065739D-02 0.19634238D+04 0.83518841D+04 0.83518841D+04 0.12175244D+01  1  2  3  2  5  2       -2 -.316225040397D+02
0.151475315913D-02 0.000000000000D+00 0.000000000000D+00 0.725251704558D+00 0.000000000000D+00  5 2 -2 -13 13 21 2 0.10966076D-01 0.45065739D-02 0.19634238D+04 0.83518841D+04 0.83518841D+04 0.12175244D+01  1  2 15  2  5  2       -2 0.283462538985D+02
0.504368924097D-02 0.000000000000D+00 0.000000000000D+00 0.725251704558D+00 0.000000000000D+00  5 2 -2 -13 13 21 2 0.10966076D-01 0.11674606D-01 0.49687756D+04 0.10197295D+05 0.10197295D+05 0.12084537D+01  1  2 12  2  5  2       -2 0.228731424915D+02
-.319699298757D-02 0.000000000000D+00 -.787648586819D-02 0.725251704558D+00 0.000000000000D+00  5 2 -2 -13 13 21 2 0.10966076D-01 0.11592677D-01 0.19634238D+04 0.83518841D+04 0.83518841D+04 0.12175244D+01  1  2  5  2  5  2       -2 -.671433610379D+02
0.531603505523D-03 0.000000000000D+00 0.000000000000D+00 0.725251704558D+00 0.000000000000D+00  5 2 21 -13 13 2 2 0.10966076D-01 0.11674606D-01 0.49687756D+04 0.10197295D+05 0.10197295D+05 0.12084537D+01  1  2 12  4  5  2       -2 0.340219678334D+02
0.144175187814D-03 0.000000000000D+00 -.823045724588D-03 0.725251704558D+00 0.000000000000D+00  5 2 21 -13 13 2 2 0.10966076D-01 0.11592677D-01 0.19634238D+04 0.83518841D+04 0.83518841D+04 0.12175244D+01  1  2  5  4  5  2       -2 -.682165997154D+02
  </mgrwgt>
  </event>
  <event npLO=' -1 ' npNLO=' 0 '>
  5     66 0.12487420E+02 0.61253663E+02 0.75467711E-02 0.11778525E+00
        2 -1    0    0  501    0 0.00000000E+00 0.00000000E+00 0.14455958E+04 0.14455958E+04 0.00000000E+00 0.0000E+00 0.9000E+01
       -2 -1    0    0    0  501 0.00000000E+00 0.00000000E+00 -.14732357E+01 0.14732357E+01 0.00000000E+00 0.0000E+00 0.9000E+01
       23  2    1    2    0    0 0.00000000E+00 0.00000000E+00 0.14441225E+04 0.14470690E+04 0.92297418E+02 0.0000E+00 0.0000E+00
      -13  1    3    3    0    0 0.31084676E+02 0.22541751E+02 0.32070969E+03 0.32300014E+03 0.00000000E+00 0.0000E+00 0.9000E+01
       13  1    3    3    0    0 -.31084676E+02 -.22541751E+02 0.11234129E+04 0.11240689E+04 0.00000000E+00 0.0000E+00 0.9000E+01
#aMCatNLO 1  0  0  2  1 0.18053822D+01 0.00000000D+00  -5  5  0 0.00000000D+00 0.00000000D+00 0.00000000D+00 0.00000000D+00 0.00000000D+00
  <mgrwgt>
 0.4694316770D+03    8    2    0
 0.461487092484730D+02 0.000000000000000D+00 0.000000000000000D+00 0.461487092484730D+02
 0.461487092484730D+02 0.000000000000000D+00 0.000000000000000D+00 -.461487092484730D+02
 0.461487092484730D+02 0.310846761749824D+02 0.225417512544401D+02 -.255991351959304D+02
 0.461487092484730D+02 -.310846761749824D+02 -.225417512544401D+02 0.255991351959304D+02
 0.000000000000000D+00 -.000000000000000D+00 -.000000000000000D+00 0.000000000000000D+00
 0.468045168122786D+02 0.000000000000000D+00 0.000000000000000D+00 0.468045168122786D+02
 0.467526797008782D+02 0.000000000000000D+00 0.000000000000000D+00 -.467526797008782D+02
 0.466475740709287D+02 0.314544166481557D+02 0.230499483133364D+02 -.255991351959304D+02
 0.456583117252900D+02 -.307188773502748D+02 -.220389718717323D+02 0.255991351959304D+02
 0.125131071693802D+01 -.735539297880901D+00 -.101097644160410D+01 0.518371114003942D-01
0.144764025937D-01 0.000000000000D+00 0.000000000000D+00 0.579091254534D+00 0.000000000000D+00  5 2 -2 -13 13 21 0 0.22239935D+00 0.22665165D-03 0.14743876D+04 0.85188135D+04 0.85188135D+04 0.12166156D+01  1  2  2  2  5  2       -2 0.340288584371D+03
-.771185467454D-03 0.000000000000D+00 -.555931976842D-04 0.579091254534D+00 0.000000000000D+00  5 2 -2 -13 13 21 2 0.22239935D+00 0.22665165D-03 0.14743876D+04 0.85188135D+04 0.85188135D+04 0.12166156D+01  1  2  3  2  5  2       -2 -.302247174123D+02
0.721798289944D-03 0.000000000000D+00 0.000000000000D+00 0.579091254534D+00 0.000000000000D+00  5 2 -2 -13 13 21 2 0.22239935D+00 0.22665165D-03 0.14743876D+04 0.85188135D+04 0.85188135D+04 0.12166156D+01  1  2 15  2  5  2       -2 0.251136220599D+02
0.440030842783D-05 0.000000000000D+00 0.000000000000D+00 0.579091254534D+00 0.000000000000D+00  5 2 -2 -13 13 21 2 0.22239935D+00 0.23288099D-03 0.15230713D+04 0.85203766D+04 0.85203766D+04 0.12166072D+01  1  2 12  2  5  2       -2 0.147645924170D+00
-.568277640932D-01 0.000000000000D+00 0.000000000000D+00 0.579091254534D+00 0.000000000000D+00  5 2 -2 -13 13 21 2 0.22239935D+00 0.22665165D-03 0.14743876D+04 0.85188135D+04 0.85188135D+04 0.12166156D+01  1  2  4  2  5  2       -2 -.197721580922D+04
0.568358863837D-01 0.000000000000D+00 0.000000000000D+00 0.579091254534D+00 0.292521030684D+01  5 2 -2 -13 13 21 2 0.22555981D+00 0.22961795D-03 0.15230713D+04 0.85203766D+04 0.85203766D+04 0.12166072D+01  1  2 11  2  5  2       -2 0.189658651054D+04
0.182624806033D-06 0.000000000000D+00 0.000000000000D+00 0.579091254534D+00 0.000000000000D+00  5 2 21 -13 13 2 2 0.22239935D+00 0.23288099D-03 0.15230713D+04 0.85203766D+04 0.85203766D+04 0.12166072D+01  1  2 12  4  5  2       -2 0.133502178178D+00
0.294878053498D-03 0.000000000000D+00 0.000000000000D+00 0.579091254534D+00 0.712342714329D-02  5 2 21 -13 13 2 2 0.22555981D+00 0.22961795D-03 0.15230713D+04 0.85203766D+04 0.85203766D+04 0.12166072D+01  1  2 11  4  5  2       -2 0.214602338608D+03
  </mgrwgt>
  </event>
  <event npLO=' -1 ' npNLO=' 0 '>
  5     66 0.12487420E+02 0.66310737E+02 0.75467711E-02 0.11789365E+00
        2 -1    0    0  501    0 0.00000000E+00 0.00000000E+00 0.26646646E+02 0.26646646E+02 0.00000000E+00 0.0000E+00 0.9000E+01
       -2 -1    0    0    0  501 0.00000000E+00 0.00000000E+00 -.77999897E+02 0.77999897E+02 0.00000000E+00 0.0000E+00 0.9000E+01
       23  2    1    2    0    0 0.00000000E+00 0.00000000E+00 -.51353252E+02 0.10464654E+03 0.91179726E+02 0.0000E+00 0.0000E+00
      -11  1    3    3    0    0 -.96085371E+01 -.44565762E+02 -.25753450E+02 0.52360972E+02 0.00000000E+00 0.0000E+00 0.9000E+01
       11  1    3    3    0    0 0.96085371E+01 0.44565762E+02 -.25599801E+02 0.52285571E+02 0.00000000E+00 0.0000E+00 0.9000E+01
#aMCatNLO 1  0  0  1  2 0.16700465D+02 0.00000000D+00  -5  5  0 0.00000000D+00 0.00000000D+00 0.00000000D+00 0.00000000D+00 0.00000000D+00
  <mgrwgt>
 0.3421316247D+03    6    2    0
 0.455898631121819D+02 0.000000000000000D+00 0.000000000000000D+00 0.455898631121819D+02
 0.455898631121819D+02 0.000000000000000D+00 0.000000000000000D+00 -.455898631121819D+02
 0.455898631121819D+02 -.960853708239274D+01 -.445657621164962D+02 -.669380283352457D-01
 0.455898631121819D+02 0.960853708239274D+01 0.445657621164962D+02 0.669380283352457D-01
 0.000000000000000D+00 -.000000000000000D+00 -.000000000000000D+00 -.000000000000000D+00
 0.496588894582661D+02 0.000000000000000D+00 0.000000000000000D+00 0.496588894582661D+02
 0.526966701355093D+02 0.000000000000000D+00 0.000000000000000D+00 -.526966701355093D+02
 0.423267706697306D+02 -.546745782430393D+01 -.419721090674246D+02 -.669380283352457D-01
 0.494180012664484D+02 0.140836299016836D+02 0.473686155303643D+02 0.669380283352457D-01
 0.106107876575963D+02 -.861617207737966D+01 -.539650646293964D+01 -.303778067724315D+01
0.277821169822D-01 0.000000000000D+00 0.000000000000D+00 0.646721218518D+00 0.000000000000D+00  5 2 -2 -11 11 21 0 0.40994839D-02 0.11999984D-01 0.20784311D+04 0.83137425D+04 0.83137425D+04 0.12177349D+01  1  2  2  1  5  1        2 0.285165068529D+03
-.154345094345D-02 0.000000000000D+00 -.106690644411D-03 0.646721218518D+00 0.000000000000D+00  5 2 -2 -11 11 21 2 0.40994839D-02 0.11999984D-01 0.20784311D+04 0.83137425D+04 0.83137425D+04 0.12177349D+01  1  2  3  1  5  1        2 -.257437287609D+02
0.152093551496D-02 0.000000000000D+00 0.000000000000D+00 0.646721218518D+00 0.000000000000D+00  5 2 -2 -11 11 21 2 0.40994839D-02 0.11999984D-01 0.20784311D+04 0.83137425D+04 0.83137425D+04 0.12177349D+01  1  2 15  1  5  1        2 0.231498015249D+02
0.172504971540D-01 0.000000000000D+00 0.000000000000D+00 0.646721218518D+00 0.000000000000D+00  5 2 -2 -11 11 21 2 0.51614627D-02 0.11999984D-01 0.25964793D+04 0.84171032D+04 0.84171032D+04 0.12171669D+01  1  2 12  1  5  1        2 0.194488211409D+03
-.142240890749D-01 0.000000000000D+00 0.000000000000D+00 0.646721218518D+00 0.000000000000D+00  5 2 -2 -11 11 21 2 0.40994839D-02 0.11999984D-01 0.20784311D+04 0.83137425D+04 0.83137425D+04 0.12177349D+01  1  2  4  1  5  1        2 -.216501512206D+03
0.549399355421D-03 0.000000000000D+00 0.000000000000D+00 0.646721218518D+00 0.000000000000D+00  5 21 -2 -11 11 -2 2 0.51614627D-02 0.11999984D-01 0.25964793D+04 0.84171032D+04 0.84171032D+04 0.12171669D+01  1  2 12  3  5  1        2 0.815737841818D+02
  </mgrwgt>
  </event>
  <event npLO=' -1 ' npNLO=' 0 '>
  5     66 0.12487420E+02 0.48418232E+02 0.75467711E-02 0.11424917E+00
        2 -1    0    0  501    0 0.00000000E+00 0.00000000E+00 0.15852012E+03 0.15852012E+03 0.00000000E+00 0.0000E+00 0.9000E+01
       -2 -1    0    0    0  501 0.00000000E+00 0.00000000E+00 -.15775462E+02 0.15775462E+02 0.00000000E+00 0.0000E+00 0.9000E+01
       23  2    1    2    0    0 0.00000000E+00 0.00000000E+00 0.14274466E+03 0.17429558E+03 0.10001456E+03 0.0000E+00 0.0000E+00
      -11  1    3    3    0    0 0.40950815E+02 0.28454336E+02 0.64826276E+02 0.81786702E+02 0.00000000E+00 0.0000E+00 0.9000E+01
       11  1    3    3    0    0 -.40950815E+02 -.28454336E+02 0.77918382E+02 0.92508879E+02 0.00000000E+00 0.0000E+00 0.9000E+01
#aMCatNLO 1  0  0  1  2 0.66284750D+02 0.00000000D+00  -5  5  0 0.00000000D+00 0.00000000D+00 0.00000000D+00 0.00000000D+00 0.00000000D+00
  <mgrwgt>
 0.2976870355D+03    7    2    0
 0.500072798958067D+02 0.000000000000000D+00 0.000000000000000D+00 0.500072798958067D+02
 0.500072798958067D+02 0.000000000000000D+00 0.000000000000000D+00 -.500072798958067D+02
 0.500072798958067D+02 0.409508153565628D+02 0.284543358566482D+02 -.375626612040655D+01
 0.500072798958067D+02 -.409508153565628D+02 -.284543358566482D+02 0.375626612040655D+01
 0.000000000000000D+00 0.000000000000000D+00 -.000000000000000D+00 0.000000000000000D+00
 0.984705604231148D+02 0.000000000000000D+00 0.000000000000000D+00 0.984705604231148D+02
 0.736951460503051D+02 0.000000000000000D+00 0.000000000000000D+00 -.736951460503051D+02
 0.480017185592584D+02 0.211712806353807D+02 0.429165740213836D+02 -.375626612040655D+01
 0.653487340306807D+02 -.642312112255424D+02 -.114323667166996D+02 0.375626612040655D+01
 0.588152538834806D+02 0.430599305901616D+02 -.314842073046839D+02 0.247754143728097D+02
0.338677801537D-01 0.000000000000D+00 0.000000000000D+00 0.194194671297D-01 0.000000000000D+00  5 2 -2 -11 11 21 0 0.24387711D-01 0.24269941D-02 0.24866185D+04 0.10002912D+05 0.10002912D+05 0.12093190D+01  1  2  2  1  5  1        2 0.415317580910D+03
-.188152503204D-02 0.000000000000D+00 -.130061193382D-03 0.194194671297D-01 0.000000000000D+00  5 2 -2 -11 11 21 2 0.24387711D-01 0.24269941D-02 0.24866185D+04 0.10002912D+05 0.10002912D+05 0.12093190D+01  1  2  3  1  5  1        2 -.369898704655D+02
0.171594923753D-02 0.000000000000D+00 0.000000000000D+00 0.194194671297D-01 0.000000000000D+00  5 2 -2 -11 11 21 2 0.24387711D-01 0.24269941D-02 0.24866185D+04 0.10002912D+05 0.10002912D+05 0.12093190D+01  1  2 15  1  5  1        2 0.307737063663D+02
0.496220430409D-02 0.000000000000D+00 0.000000000000D+00 0.194194671297D-01 0.000000000000D+00  5 2 -2 -11 11 21 2 0.70770109D-01 0.24269941D-02 0.69253708D+04 0.12848325D+05 0.12848325D+05 0.11982059D+01  1  2 12  1  5  1        2 0.280772667145D+02
-.291230077055D-02 0.000000000000D+00 -.127946590068D-01 0.194194671297D-01 0.000000000000D+00  5 2 -2 -11 11 21 2 0.67764426D-01 0.24269941D-02 0.24866185D+04 0.10002912D+05 0.10002912D+05 0.12093190D+01  1  2  5  1  5  1        2 -.123487883439D+03
0.597709119244D-03 0.000000000000D+00 0.000000000000D+00 0.194194671297D-01 0.000000000000D+00  5 21 -2 -11 11 -2 2 0.70770109D-01 0.24269941D-02 0.69253708D+04 0.12848325D+05 0.12848325D+05 0.11982059D+01  1  2 12  3  5  1        2 0.763376988584D+01
0.387117637550D-03 0.000000000000D+00 -.146629201322D-02 0.194194671297D-01 0.000000000000D+00  5 21 -2 -11 11 -2 2 0.67764426D-01 0.24269941D-02 0.24866185D+04 0.10002912D+05 0.10002912D+05 0.12093190D+01  1  2  5  3  5  1        2 -.236375344887D+02
  </mgrwgt>
  </event>
  <event npLO=' -1 ' npNLO=' 0 '>
  5     66 0.12487420E+02 0.91451012E+02 0.75467711E-02 0.11342326E+00
        2 -1    0    0  501    0 0.00000000E+00 0.00000000E+00 0.33089599E+02 0.33089599E+02 0.00000000E+00 0.0000E+00 0.9000E+01
       -2 -1    0    0    0  501 0.00000000E+00 0.00000000E+00 -.63186678E+02 0.63186678E+02 0.00000000E+00 0.0000E+00 0.9000E+01
       23  2    1    2    0    0 0.00000000E+00 0.00000000E+00 -.30097079E+02 0.96276278E+02 0.91451012E+02 0.0000E+00 0.0000E+00
      -11  1    3    3    0    0 0.43224311E+02 0.51102303E+01 -.29800996E+02 0.52749928E+02 0.00000000E+00 0.0000E+00 0.9000E+01
       11  1    3    3    0    0 -.43224311E+02 -.51102303E+01 -.29608258E+00 0.43526350E+02 0.00000000E+00 0.0000E+00 0.9000E+01
#aMCatNLO 1  0  0  1  2 0.23111417D+03 0.00000000D+00  -5  5  0 0.00000000D+00 0.00000000D+00 0.00000000D+00 0.00000000D+00 0.00000000D+00
  <mgrwgt>
 0.3293849652D+03    3    2    0
 0.457255058109814D+02 0.000000000000000D+00 0.000000000000000D+00 0.457255058109814D+02
 0.457255058109814D+02 0.000000000000000D+00 0.000000000000000D+00 -.457255058109814D+02
 0.457255058109814D+02 0.432243107349535D+02 0.511023031126600D+01 -.140130792235001D+02
 0.457255058109814D+02 -.432243107349535D+02 -.511023031126600D+01 0.140130792235001D+02
 0.000000000000000D+00 0.000000000000000D+00 -.000000000000000D+00 -.000000000000000D+00
 0.659821726381272D+02 0.000000000000000D+00 0.000000000000000D+00 0.659821726381272D+02
 0.287063960080712D+03 0.000000000000000D+00 0.000000000000000D+00 -.287063960080712D+03
 0.284607010279671D+02 0.187229445262389D+02 0.162202485167959D+02 -.140130792235001D+02
 0.906847799998599D+02 -.882763292933702D+02 0.153183752659141D+02 0.140130792235001D+02
 0.233900651691012D+03 0.695533847671312D+02 -.315386237827099D+02 -.221081787442585D+03
0.311522938393D-01 0.000000000000D+00 0.000000000000D+00 0.749869680096D+00 0.000000000000D+00  5 2 -2 -11 11 21 0 0.50907076D-02 0.97210275D-02 0.18944555D+04 0.83632875D+04 0.83632875D+04 0.12174616D+01  1  2  2  1  5  1        2 0.332426454844D+03
-.172556593830D-02 0.000000000000D+00 -.119633010930D-03 0.749869680096D+00 0.000000000000D+00  5 2 -2 -11 11 21 2 0.50907076D-02 0.97210275D-02 0.18944555D+04 0.83632875D+04 0.83632875D+04 0.12174616D+01  1  2  3  1  5  1        2 -.301025408652D+02
0.171091541972D-02 0.000000000000D+00 0.000000000000D+00 0.749869680096D+00 0.000000000000D+00  5 2 -2 -11 11 21 2 0.50907076D-02 0.97210275D-02 0.18944555D+04 0.83632875D+04 0.83632875D+04 0.12174616D+01  1  2 15  1  5  1        2 0.270610512304D+02
  </mgrwgt>
  </event>
  <event npLO=' -1 ' npNLO=' 0 '>
  6     66 0.12487420E+02 0.92156676E+02 0.75467711E-02 0.11753469E+00
        2 -1    0    0  501    0 0.00000000E+00 0.00000000E+00 0.11075429E+03 0.11075429E+03 0.00000000E+00 0.0000E+00 0.9000E+01
       21 -1    0    0  502  501 0.00000000E+00 0.00000000E+00 -.32614388E+02 0.32614388E+02 0.00000000E+00 0.0000E+00 0.9000E+01
       23  2    1    2    0    0 -.16488468E+02 -.16791757E+00 0.39981935E+02 0.10180032E+03 0.92156676E+02 0.0000E+00 0.0000E+00
      -11  1    3    3    0    0 -.19376473E+02 -.10759248E+02 0.68099688E+02 0.71615478E+02 0.00000000E+00 0.0000E+00 0.9000E+01
       11  1    3    3    0    0 0.28880050E+01 0.10591331E+02 -.28117753E+02 0.30184845E+02 0.00000000E+00 0.0000E+00 0.9000E+01
        2  1    1    2  502    0 0.16488468E+02 0.16791757E+00 0.38157967E+02 0.41568356E+02 0.00000000E+00 0.0000E+00 0.9000E+01
#aMCatNLO 2  0  0  2  1 0.46299744D+02 0.00000000D+00  -5  5  0 0.00000000D+00 0.00000000D+00 0.00000000D+00 0.00000000D+00 0.00000000D+00
  <mgrwgt>
 0.5984395635D+02    2    2    0
 0.460783378621461D+02 0.000000000000000D+00 0.000000000000000D+00 0.460783378621461D+02
 0.460783378621461D+02 0.000000000000000D+00 0.000000000000000D+00 -.460783378621461D+02
 0.460783378621461D+02 -.109565265504628D+02 -.106734998817038D+02 0.434654362265278D+02
 0.460783378621461D+02 0.109565265504628D+02 0.106734998817038D+02 -.434654362265278D+02
 0.000000000000000D+00 0.000000000000000D+00 0.000000000000000D+00 0.000000000000000D+00
 0.731321685358259D+02 0.000000000000000D+00 0.000000000000000D+00 0.731321685358259D+02
 0.493925384484049D+02 0.000000000000000D+00 0.000000000000000D+00 -.493925384484049D+02
 0.487898889745121D+02 -.193764728443620D+02 -.107592481100939D+02 0.434654362265278D+02
 0.448303580357053D+02 0.288800495338210D+01 0.105913305413628D+02 -.434654362265278D+02
 0.289044599740135D+02 0.164884678909799D+02 0.167917568731098D+00 0.237396300874210D+02
-.163318682447D-03 0.000000000000D+00 0.000000000000D+00 0.612646117100D+00 0.000000000000D+00  5 2 21 -11 11 2 2 0.10735828D-01 0.79635650D-02 0.61579856D+03 0.87647507D+04 0.87647507D+04 0.12153125D+01  1  2 13  4  5  2       -2 -.203731979683D+02
0.527475623922D-03 0.000000000000D+00 0.000000000000D+00 0.612646117100D+00 0.302943041867D-03  5 2 21 -11 11 2 2 0.17039122D-01 0.50175982D-02 0.61579856D+03 0.87647507D+04 0.87647507D+04 0.12153125D+01  1  2  1  4  5  2       -2 0.802171543200D+02
  </mgrwgt>
  </event>
  <event npLO=' -1 ' npNLO=' 0 '>
  5     66 0.12487420E+02 0.41747361E+02 0.75467711E-02 0.11804077E+00
        2 -1    0    0  501    0 0.00000000E+00 0.00000000E+00 0.47591900E+01 0.47591900E+01 0.00000000E+00 0.0000E+00 0.9000E+01
       -2 -1    0    0    0  501 0.00000000E+00 0.00000000E+00 -.43470767E+03 0.43470767E+03 0.00000000E+00 0.0000E+00 0.9000E+01
       23  2    1    2    0    0 0.00000000E+00 0.00000000E+00 -.42994848E+03 0.43946686E+03 0.90969366E+02 0.0000E+00 0.0000E+00
      -11  1    3    3    0    0 -.38807785E+02 0.22769623E+02 -.18279990E+03 0.18825595E+03 0.00000000E+00 0.0000E+00 0.9000E+01
       11  1    3    3    0    0 0.38807785E+02 -.22769623E+02 -.24714858E+03 0.25121091E+03 0.00000000E+00 0.0000E+00 0.9000E+01
#aMCatNLO 1  0  0  2  1 0.20821648D+01 0.00000000D+00  -5  5  0 0.00000000D+00 0.00000000D+00 0.00000000D+00 0.00000000D+00 0.00000000D+00
  <mgrwgt>
 0.6690519450D+03   11    2    0
 0.454846829092148D+02 0.000000000000000D+00 0.000000000000000D+00 0.454846829092148D+02
 0.454846829092148D+02 0.000000000000000D+00 0.000000000000000D+00 -.454846829092148D+02
 0.454846829092148D+02 -.388077845541654D+02 0.227696228237059D+02 0.666006860441207D+01
 0.454846829092148D+02 0.388077845541654D+02 -.227696228237059D+02 -.666006860441207D+01
 0.000000000000000D+00 -.000000000000000D+00 -.000000000000000D+00 -.000000000000000D+00
 0.458419499056550D+02 0.000000000000000D+00 0.000000000000000D+00 0.458419499056550D+02
 0.482559914855636D+02 0.000000000000000D+00 0.000000000000000D+00 -.482559914855636D+02
 0.448138320291115D+02 -.378691358116808D+02 0.230185051685469D+02 0.666006860441207D+01
 0.461765777585410D+02 0.397605989733073D+02 -.225169844552715D+02 -.666006860441207D+01
 0.310753160356607D+01 -.189146316162649D+01 -.501520713275351D+00 -.241404157990860D+01
0.819192719018D-01 0.000000000000D+00 0.000000000000D+00 0.608529491683D+00 0.000000000000D+00  5 2 -2 -11 11 21 0 0.73218307D-03 0.66878103D-01 0.20244999D+04 0.82754255D+04 0.82754255D+04 0.12179474D+01  1  2  2  2  5  2       -2 0.435090289084D+03
-.455042085359D-02 0.000000000000D+00 -.314591573943D-03 0.608529491683D+00 0.000000000000D+00  5 2 -2 -11 11 21 2 0.73218307D-03 0.66878103D-01 0.20244999D+04 0.82754255D+04 0.82754255D+04 0.12179474D+01  1  2  3  2  5  2       -2 -.393407725853D+02
0.467609945411D-02 0.000000000000D+00 0.000000000000D+00 0.608529491683D+00 0.000000000000D+00  5 2 -2 -11 11 21 2 0.73218307D-03 0.66878103D-01 0.20244999D+04 0.82754255D+04 0.82754255D+04 0.12179474D+01  1  2 15  2  5  2       -2 0.368412305188D+02
0.764826055583D-03 0.000000000000D+00 0.000000000000D+00 0.608529491683D+00 0.000000000000D+00  5 2 -2 -11 11 21 2 0.73218307D-03 0.71510189D-01 0.21144710D+04 0.82792547D+04 0.82792547D+04 0.12179261D+01  1  2 12  2  5  2       -2 0.524759354441D+01
-.670794208784D+00 0.000000000000D+00 0.000000000000D+00 0.608529491683D+00 0.000000000000D+00  5 2 -2 -11 11 21 2 0.73218307D-03 0.66878103D-01 0.20244999D+04 0.82754255D+04 0.82754255D+04 0.12179474D+01  1  2  4  2  5  2       -2 -.528493551495D+04
-.131647474316D+01 0.000000000000D+00 -.145369823275D+00 0.608529491683D+00 0.000000000000D+00  5 2 -2 -11 11 21 2 0.73218307D-03 0.71312717D-01 0.20244999D+04 0.82754255D+04 0.82754255D+04 0.12179474D+01  1  2  5  2  5  2       -2 -.104973041545D+05
0.132337858459D+01 0.000000000000D+00 0.145070727379D+00 0.608529491683D+00 0.000000000000D+00  5 2 -2 -11 11 21 2 0.73218307D-03 0.66878103D-01 0.20244999D+04 0.82754255D+04 0.82754255D+04 0.12179474D+01  1  2  6  2  5  2       -2 0.120356501373D+05
0.671306982554D+00 0.000000000000D+00 0.000000000000D+00 0.608529491683D+00 0.125975218968D+01  5 2 -2 -11 11 21 2 0.73793412D-03 0.70952878D-01 0.21144710D+04 0.82792547D+04 0.82792547D+04 0.12179261D+01  1  2 11  2  5  2       -2 0.463303543182D+04
0.112850871221D-04 0.000000000000D+00 0.000000000000D+00 0.608529491683D+00 0.000000000000D+00  5 2 21 -11 11 2 2 0.73218307D-03 0.71510189D-01 0.21144710D+04 0.82792547D+04 0.82792547D+04 0.12179261D+01  1  2 12  4  5  2       -2 0.794993346130D+00
-.142217138782D-01 0.000000000000D+00 -.159328030663D-02 0.608529491683D+00 0.000000000000D+00  5 2 21 -11 11 2 2 0.73218307D-03 0.71312717D-01 0.20244999D+04 0.82754255D+04 0.82754255D+04 0.12179474D+01  1  2  5  4  5  2       -2 -.116720317668D+04
0.720380333049D-02 0.000000000000D+00 0.000000000000D+00 0.608529491683D+00 0.128983573645D-01  5 2 21 -11 11 2 2 0.73793412D-03 0.70952878D-01 0.21144710D+04 0.82792547D+04 0.82792547D+04 0.12179261D+01  1  2 11  4  5  2       -2 0.511175888142D+03
  </mgrwgt>
  </event>
  <event npLO=' -1 ' npNLO=' 0 '>
  5     66 0.12487420E+02 0.50535127E+02 0.75467711E-02 0.11796044E+00
        2 -1    0    0  501    0 0.00000000E+00 0.00000000E+00 0.12209076E+04 0.12209076E+04 0.00000000E+00 0.0000E+00 0.9000E+01
       -2 -1    0    0    0  501 0.00000000E+00 0.00000000E+00 -.16991237E+01 0.16991237E+01 0.00000000E+00 0.0000E+00 0.9000E+01
       23  2    1    2    0    0 0.00000000E+00 0.00000000E+00 0.12192085E+04 0.12226068E+04 0.91092769E+02 0.0000E+00 0.0000E+00
      -11  1    3    3    0    0 0.57553552E+01 -.43658118E+02 0.76573211E+03 0.76699728E+03 0.00000000E+00 0.0000E+00 0.9000E+01
       11  1    3    3    0    0 -.57553552E+01 0.43658118E+02 0.45347641E+03 0.45560950E+03 0.00000000E+00 0.0000E+00 0.9000E+01
#aMCatNLO 1  0  0  1  2 0.10549382D+02 0.00000000D+00  -5  5  0 0.00000000D+00 0.00000000D+00 0.00000000D+00 0.00000000D+00 0.00000000D+00
  <mgrwgt>
 0.9291234556D+03    9    2    0
 0.455463847376394D+02 0.000000000000000D+00 0.000000000000000D+00 0.455463847376394D+02
 0.455463847376394D+02 0.000000000000000D+00 0.000000000000000D+00 -.455463847376394D+02
 0.455463847376394D+02 0.575535516622388D+01 -.436581176624995D+02 0.116326184389864D+02
 0.455463847376394D+02 -.575535516622388D+01 0.436581176624995D+02 -.116326184389864D+02
 0.000000000000000D+00 -.000000000000000D+00 0.000000000000000D+00 0.000000000000000D+00
 0.495011145059902D+02 0.000000000000000D+00 0.000000000000000D+00 0.495011145059902D+02
 0.494045673275054D+02 0.000000000000000D+00 0.000000000000000D+00 -.494045673275054D+02
 0.491672519235448D+02 0.737875848254081D+01 -.471980378111485D+02 0.116326184389864D+02
 0.422340553274620D+02 -.425078768752789D+01 0.403773255886473D+02 -.116326184389864D+02
 0.750437458248883D+01 -.312797079501292D+01 0.682071222250120D+01 0.965471784847264D-01
0.152747822525D-01 0.000000000000D+00 0.000000000000D+00 0.633816454407D+00 0.000000000000D+00  5 2 -2 -11 11 21 0 0.18783195D+00 0.26140365D-03 0.19391554D+04 0.82978927D+04 0.82978927D+04 0.12178227D+01  1  2  2  1  5  1        2 0.388202350779D+03
-.847425336275D-03 0.000000000000D+00 -.586591857920D-04 0.633816454407D+00 0.000000000000D+00  5 2 -2 -11 11 21 2 0.18783195D+00 0.26140365D-03 0.19391554D+04 0.82978927D+04 0.82978927D+04 0.12178227D+01  1  2  3  1  5  1        2 -.351555347841D+02
0.813276643136D-03 0.000000000000D+00 0.000000000000D+00 0.633816454407D+00 0.000000000000D+00  5 2 -2 -11 11 21 2 0.18783195D+00 0.26140365D-03 0.19391554D+04 0.82978927D+04 0.82978927D+04 0.12178227D+01  1  2 15  1  5  1        2 0.306541678800D+02
0.157201390912D-01 0.000000000000D+00 0.000000000000D+00 0.633816454407D+00 0.000000000000D+00  5 2 -2 -11 11 21 2 0.22143370D+00 0.26140365D-03 0.22980306D+04 0.83541990D+04 0.83541990D+04 0.12175116D+01  1  2 12  1  5  1        2 0.455362620363D+03
-.156014514435D-01 0.000000000000D+00 0.000000000000D+00 0.633816454407D+00 0.000000000000D+00  5 2 -2 -11 11 21 2 0.18783195D+00 0.26140365D-03 0.19391554D+04 0.82978927D+04 0.82978927D+04 0.12178227D+01  1  2  4  1  5  1        2 -.588052682634D+03
-.652670088356D-01 0.000000000000D+00 -.154695669526D-01 0.633816454407D+00 0.000000000000D+00  5 2 -2 -11 11 21 2 0.21536786D+00 0.26140365D-03 0.19391554D+04 0.82978927D+04 0.82978927D+04 0.12178227D+01  1  2  5  1  5  1        2 -.266434319396D+04
0.668999078943D-01 0.000000000000D+00 0.153259367375D-01 0.633816454407D+00 0.000000000000D+00  5 2 -2 -11 11 21 2 0.18783195D+00 0.26140365D-03 0.19391554D+04 0.82978927D+04 0.82978927D+04 0.12178227D+01  1  2  6  1  5  1        2 0.336138746106D+04
0.386302306715D-03 0.000000000000D+00 0.000000000000D+00 0.633816454407D+00 0.000000000000D+00  5 21 -2 -11 11 -2 2 0.22143370D+00 0.26140365D-03 0.22980306D+04 0.83541990D+04 0.83541990D+04 0.12175116D+01  1  2 12  3  5  1        2 0.469661522858D+01
-.129006391920D-02 0.000000000000D+00 -.327318192187D-03 0.633816454407D+00 0.000000000000D+00  5 21 -2 -11 11 -2 2 0.21536786D+00 0.26140365D-03 0.19391554D+04 0.82978927D+04 0.82978927D+04 0.12178227D+01  1  2  5  3  5  1        2 -.236283483007D+02
  </mgrwgt>
  </event>
  <event npLO=' -1 ' npNLO=' 0 '>
  5     66 0.12487420E+02 0.65063435E+02 0.75467711E-02 0.11797211E+00
        2 -1    0    0  501    0 0.00000000E+00 0.00000000E+00 0.10644044E+03 0.10644044E+03 0.00000000E+00 0.0000E+00 0.9000E+01
       -2 -1    0    0    0  501 0.00000000E+00 0.00000000E+00 -.18669247E+02 0.18669247E+02 0.00000000E+00 0.0000E+00 0.9000E+01
       23  2    1    2    0    0 0.00000000E+00 0.00000000E+00 0.87771193E+02 0.12510969E+03 0.89155210E+02 0.0000E+00 0.0000E+00
      -13  1    3    3    0    0 -.23057451E+02 0.28053700E+01 -.95063196E+01 0.25097535E+02 0.00000000E+00 0.0000E+00 0.9000E+01
       13  1    3    3    0    0 0.23057451E+02 -.28053700E+01 0.97277513E+02 0.10001215E+03 0.00000000E+00 0.0000E+00 0.9000E+01
#aMCatNLO 1  0  0  2  1 0.21113747D+02 0.00000000D+00  -5  5  0 0.00000000D+00 0.00000000D+00 0.00000000D+00 0.00000000D+00 0.00000000D+00
  <mgrwgt>
 0.4461587468D+03    9    2    0
 0.445776050943619D+02 0.000000000000000D+00 0.000000000000000D+00 0.445776050943619D+02
 0.445776050943619D+02 0.000000000000000D+00 0.000000000000000D+00 -.445776050943619D+02
 0.445776050943619D+02 -.230574509760847D+02 0.280536995611234D+01 -.380479530309276D+02
 0.445776050943619D+02 0.230574509760847D+02 -.280536995611234D+01 0.380479530309276D+02
 0.000000000000000D+00 0.000000000000000D+00 -.000000000000000D+00 -.000000000000000D+00
 0.484293396920264D+02 0.000000000000000D+00 0.000000000000000D+00 0.484293396920264D+02
 0.814319545574273D+02 0.000000000000000D+00 0.000000000000000D+00 -.814319545574273D+02
 0.486849373447438D+02 -.279839916093620D+02 0.118098521593246D+02 -.380479530309276D+02
 0.426565004450792D+02 0.184493590850849D+02 0.561706771607436D+01 0.380479530309276D+02
 0.385198564596308D+02 0.953463252427716D+01 -.174269198753989D+02 -.330026148654009D+02
0.230675187588D-01 0.000000000000D+00 0.000000000000D+00 0.277632561488D+00 0.000000000000D+00  5 2 -2 -13 13 21 0 0.16375452D-01 0.28721919D-02 0.53951615D+03 0.79486515D+04 0.79486515D+04 0.12198063D+01  1  2  2  2  5  2       -2 0.343788604671D+03
-.619364905235D-03 0.000000000000D+00 -.885853458510D-04 0.277632561488D+00 0.000000000000D+00  5 2 -2 -13 13 21 2 0.16375452D-01 0.28721919D-02 0.53951615D+03 0.79486515D+04 0.79486515D+04 0.12198063D+01  1  2  3  2  5  2       -2 -.190191461260D+02
0.848725485512D-03 0.000000000000D+00 0.000000000000D+00 0.277632561488D+00 0.000000000000D+00  5 2 -2 -13 13 21 2 0.16375452D-01 0.28721919D-02 0.53951615D+03 0.79486515D+04 0.79486515D+04 0.12198063D+01  1  2 15  2  5  2       -2 0.188208640143D+02
0.289581954168D-01 0.000000000000D+00 0.000000000000D+00 0.277632561488D+00 0.000000000000D+00  5 2 -2 -13 13 21 2 0.16375452D-01 0.57001120D-02 0.12084018D+04 0.83432583D+04 0.83432583D+04 0.12175719D+01  1  2 12  2  5  2       -2 0.238992630317D+03
-.257894418606D-01 0.000000000000D+00 0.000000000000D+00 0.277632561488D+00 0.000000000000D+00  5 2 -2 -13 13 21 2 0.16375452D-01 0.28721919D-02 0.53951615D+03 0.79486515D+04 0.79486515D+04 0.12198063D+01  1  2  4  2  5  2       -2 -.571892309762D+03
-.196827960410D-01 0.000000000000D+00 -.681590281086D-02 0.277632561488D+00 0.000000000000D+00  5 2 -2 -13 13 21 2 0.16375452D-01 0.56843918D-02 0.53951615D+03 0.79486515D+04 0.79486515D+04 0.12198063D+01  1  2  5  2  5  2       -2 -.315160311825D+03
0.206606733159D-01 0.000000000000D+00 0.548698355297D-02 0.277632561488D+00 0.000000000000D+00  5 2 -2 -13 13 21 2 0.16375452D-01 0.28721919D-02 0.53951615D+03 0.79486515D+04 0.79486515D+04 0.12198063D+01  1  2  6  2  5  2       -2 0.785479147805D+03
0.214842568647D-02 0.000000000000D+00 0.000000000000D+00 0.277632561488D+00 0.000000000000D+00  5 2 21 -13 13 2 2 0.16375452D-01 0.57001120D-02 0.12084018D+04 0.83432583D+04 0.83432583D+04 0.12175719D+01  1  2 12  4  5  2       -2 0.279175989878D+03
-.104922675685D-02 0.000000000000D+00 -.503716351274D-03 0.277632561488D+00 0.000000000000D+00  5 2 21 -13 13 2 2 0.16375452D-01 0.56843918D-02 0.53951615D+03 0.79486515D+04 0.79486515D+04 0.12198063D+01  1  2  5  4  5  2       -2 -.314026722130D+03
  </mgrwgt>
  </event>
  <event npLO=' -1 ' npNLO=' 0 '>
  5     66 0.12487420E+02 0.67890535E+02 0.75467711E-02 0.11668596E+00
        2 -1    0    0  501    0 0.00000000E+00 0.00000000E+00 0.59750394E+02 0.59750394E+02 0.00000000E+00 0.0000E+00 0.9000E+01
       -2 -1    0    0    0  501 0.00000000E+00 0.00000000E+00 -.39338836E+02 0.39338836E+02 0.00000000E+00 0.0000E+00 0.9000E+01
       23  2    1    2    0    0 0.00000000E+00 0.00000000E+00 0.20411557E+02 0.99089230E+02 0.96964137E+02 0.0000E+00 0.0000E+00
      -13  1    3    3    0    0 -.33758626E+02 -.34161437E+02 0.16973791E+02 0.50938769E+02 0.00000000E+00 0.0000E+00 0.9000E+01
       13  1    3    3    0    0 0.33758626E+02 0.34161437E+02 0.34377666E+01 0.48150461E+02 0.00000000E+00 0.0000E+00 0.9000E+01
#aMCatNLO 1  0  0  1  2 0.19826148D+02 0.00000000D+00  -5  5  0 0.00000000D+00 0.00000000D+00 0.00000000D+00 0.00000000D+00 0.00000000D+00
  <mgrwgt>
 0.3996613209D+03    9    2    0
 0.484820684212464D+02 0.000000000000000D+00 0.000000000000000D+00 0.484820684212464D+02
 0.484820684212464D+02 0.000000000000000D+00 0.000000000000000D+00 -.484820684212464D+02
 0.484820684212464D+02 -.337586261285844D+02 -.341614373284273D+02 0.662286342670687D+01
 0.484820684212464D+02 0.337586261285844D+02 0.341614373284273D+02 -.662286342670687D+01
 0.000000000000000D+00 0.000000000000000D+00 -.000000000000000D+00 0.000000000000000D+00
 0.603270990122290D+02 0.000000000000000D+00 0.000000000000000D+00 0.603270990122290D+02
 0.547727977285775D+02 0.000000000000000D+00 0.000000000000000D+00 -.547727977285775D+02
 0.503327610456917D+02 -.402797221143689D+02 -.294460269120149D+02 0.662286342670687D+01
 0.479261446575018D+02 0.273963501959539D+02 0.387620048204893D+02 -.662286342670687D+01
 0.168409910376130D+02 0.128833719184150D+02 -.931597790847445D+01 0.555430128365149D+01
0.283104763678D-01 0.000000000000D+00 0.000000000000D+00 0.310893267582D-01 0.000000000000D+00  5 2 -2 -13 13 21 0 0.91923682D-02 0.60521287D-02 0.23066486D+04 0.94020438D+04 0.94020438D+04 0.12121174D+01  1  2  2  1  5  1        2 0.291390755934D+03
-.157263460479D-02 0.000000000000D+00 -.108719683572D-03 0.310893267582D-01 0.000000000000D+00  5 2 -2 -13 13 21 2 0.91923682D-02 0.60521287D-02 0.23066486D+04 0.94020438D+04 0.94020438D+04 0.12121174D+01  1  2  3  1  5  1        2 -.260920258675D+02
0.144930503081D-02 0.000000000000D+00 0.000000000000D+00 0.310893267582D-01 0.000000000000D+00  5 2 -2 -13 13 21 2 0.91923682D-02 0.60521287D-02 0.23066486D+04 0.94020438D+04 0.94020438D+04 0.12121174D+01  1  2 15  1  5  1        2 0.219168327783D+02
0.226011286359D-01 0.000000000000D+00 0.000000000000D+00 0.310893267582D-01 0.000000000000D+00  5 2 -2 -13 13 21 2 0.12922380D-01 0.60521287D-02 0.32069667D+04 0.96548125D+04 0.96548125D+04 0.12109166D+01  1  2 12  1  5  1        2 0.225559813728D+03
-.238695386645D-01 0.000000000000D+00 0.000000000000D+00 0.310893267582D-01 0.000000000000D+00  5 2 -2 -13 13 21 2 0.91923682D-02 0.60521287D-02 0.23066486D+04 0.94020438D+04 0.94020438D+04 0.12121174D+01  1  2  4  1  5  1        2 -.360962444955D+03
-.458709541960D-01 0.000000000000D+00 -.163770491714D-01 0.310893267582D-01 0.000000000000D+00  5 2 -2 -13 13 21 2 0.12875143D-01 0.60521287D-02 0.23066486D+04 0.94020438D+04 0.94020438D+04 0.12121174D+01  1  2  5  1  5  1        2 -.690572870493D+03
0.494433012813D-01 0.000000000000D+00 0.154895272941D-01 0.310893267582D-01 0.000000000000D+00  5 2 -2 -13 13 21 2 0.91923682D-02 0.60521287D-02 0.23066486D+04 0.94020438D+04 0.94020438D+04 0.12121174D+01  1  2  6  1  5  1        2 0.107683095630D+04
0.957333818723D-03 0.000000000000D+00 0.000000000000D+00 0.310893267582D-01 0.000000000000D+00  5 21 -2 -13 13 -2 2 0.12922380D-01 0.60521287D-02 0.32069667D+04 0.96548125D+04 0.96548125D+04 0.12109166D+01  1  2 12  3  5  1        2 0.873821273981D+02
-.148997435702D-02 0.000000000000D+00 -.688312857850D-03 0.310893267582D-01 0.000000000000D+00  5 21 -2 -13 13 -2 2 0.12875143D-01 0.60521287D-02 0.23066486D+04 0.94020438D+04 0.94020438D+04 0.12121174D+01  1  2  5  3  5  1        2 -.225791823918D+03
  </mgrwgt>
  </event>
  <event npLO=' -1 ' npNLO=' 0 '>
  5     66 0.12487420E+02 0.38316785E+02 0.75467711E-02 0.11814458E+00
        2 -1    0    0  501    0 0.00000000E+00 0.00000000E+00 0.10440237E+04 0.10440237E+04 0.00000000E+00 0.0000E+00 0.9000E+01
       -2 -1    0    0    0  501 0.00000000E+00 0.00000000E+00 -.19544938E+01 0.19544938E+01 0.00000000E+00 0.0000E+00 0.9000E+01
       23  2    1    2    0    0 0.00000000E+00 0.00000000E+00 0.10420692E+04 0.10459782E+04 0.90344627E+02 0.0000E+00 0.0000E+00
      -13  1    3    3    0    0 0.20008946E+02 -.11383689E+02 0.71053958E+02 0.74690101E+02 0.00000000E+00 0.0000E+00 0.9000E+01
       13  1    3    3    0    0 -.20008946E+02 0.11383689E+02 0.97101525E+03 0.97128810E+03 0.00000000E+00 0.0000E+00 0.9000E+01
#aMCatNLO 1  0  0  1  2 0.47887214D+01 0.00000000D+00  -5  5  0 0.00000000D+00 0.00000000D+00 0.00000000D+00 0.00000000D+00 0.00000000D+00
  <mgrwgt>
 0.7241632740D+03   11    2    0
 0.451723135326923D+02 0.000000000000000D+00 0.000000000000000D+00 0.451723135326923D+02
 0.451723135326923D+02 0.000000000000000D+00 0.000000000000000D+00 -.451723135326923D+02
 0.451723135326923D+02 0.200089461785318D+02 -.113836891884208D+02 -.388663299422765D+02
 0.451723135326923D+02 -.200089461785318D+02 0.113836891884208D+02 0.388663299422765D+02
 0.000000000000000D+00 -.000000000000000D+00 -.000000000000000D+00 0.000000000000000D+00
 0.547188267325621D+02 0.000000000000000D+00 0.000000000000000D+00 0.547188267325621D+02
 0.457957105059425D+02 0.000000000000000D+00 0.000000000000000D+00 -.457957105059425D+02
 0.450826560554149D+02 0.208885072712511D+02 -.924794776195391D+01 -.388663299422765D+02
 0.453803870639533D+02 -.191264836100002D+02 0.135264759493638D+02 0.388663299422765D+02
 0.100514941191363D+02 -.176202366125099D+01 -.427852818740993D+01 0.892311622661964D+01
0.143453499367D-01 0.000000000000D+00 0.000000000000D+00 0.803839215101D+00 0.000000000000D+00  5 2 -2 -13 13 21 0 0.16061903D+00 0.30069136D-03 0.52994631D+03 0.81621516D+04 0.81621516D+04 0.12185823D+01  1  2  2  1  5  1        2 0.376875227596D+03
-.356648041840D-03 0.000000000000D+00 -.550899209741D-04 0.803839215101D+00 0.000000000000D+00  5 2 -2 -13 13 21 2 0.16061903D+00 0.30069136D-03 0.52994631D+03 0.81621516D+04 0.81621516D+04 0.12185823D+01  1  2  3  1  5  1        2 -.197903334318D+02
0.516125995135D-03 0.000000000000D+00 0.000000000000D+00 0.803839215101D+00 0.000000000000D+00  5 2 -2 -13 13 21 2 0.16061903D+00 0.30069136D-03 0.52994631D+03 0.81621516D+04 0.81621516D+04 0.12185823D+01  1  2 15  1  5  1        2 0.201350129187D+02
0.257006621939D-01 0.000000000000D+00 0.000000000000D+00 0.803839215101D+00 0.000000000000D+00  5 2 -2 -13 13 21 2 0.19724859D+00 0.30069136D-03 0.64763899D+03 0.81835622D+04 0.81835622D+04 0.12184615D+01  1  2 12  1  5  1        2 0.745230185787D+03
-.841280018183D-01 0.000000000000D+00 0.000000000000D+00 0.803839215101D+00 0.000000000000D+00  5 2 -2 -13 13 21 2 0.16061903D+00 0.30069136D-03 0.52994631D+03 0.81621516D+04 0.81621516D+04 0.12185823D+01  1  2  4  1  5  1        2 -.328198621926D+04
-.943923163945D-01 0.000000000000D+00 -.108266300069D-01 0.803839215101D+00 0.000000000000D+00  5 2 -2 -13 13 21 2 0.19566308D+00 0.30069136D-03 0.52994631D+03 0.81621516D+04 0.81621516D+04 0.12185823D+01  1  2  5  1  5  1        2 -.364084555325D+04
0.948826600904D-01 0.000000000000D+00 0.106191471066D-01 0.803839215101D+00 0.000000000000D+00  5 2 -2 -13 13 21 2 0.16061903D+00 0.30069136D-03 0.52994631D+03 0.81621516D+04 0.81621516D+04 0.12185823D+01  1  2  6  1  5  1        2 0.483436715949D+04
0.586428152436D-01 0.000000000000D+00 0.000000000000D+00 0.803839215101D+00 0.302277672128D+00  5 2 -2 -13 13 21 2 0.19456353D+00 0.30484103D-03 0.64763899D+03 0.81835622D+04 0.81835622D+04 0.12184615D+01  1  2 11  1  5  1        2 0.170519518953D+04
0.750698120751D-03 0.000000000000D+00 0.000000000000D+00 0.803839215101D+00 0.000000000000D+00  5 21 -2 -13 13 -2 2 0.19724859D+00 0.30069136D-03 0.64763899D+03 0.81835622D+04 0.81835622D+04 0.12184615D+01  1  2 12  3  5  1        2 0.111647011931D+02
-.255190864694D-02 0.000000000000D+00 -.306676968454D-03 0.803839215101D+00 0.000000000000D+00  5 21 -2 -13 13 -2 2 0.19566308D+00 0.30069136D-03 0.52994631D+03 0.81621516D+04 0.81621516D+04 0.12185823D+01  1  2  5  3  5  1        2 -.517729915630D+02
0.167643401611D-02 0.000000000000D+00 0.000000000000D+00 0.803839215101D+00 0.848064560254D-02  5 21 -2 -13 13 -2 2 0.19456353D+00 0.30484103D-03 0.64763899D+03 0.81835622D+04 0.81835622D+04 0.12184615D+01  1  2 11  3  5  1        2 0.255908949493D+02
  </mgrwgt>
  </event>
  <event npLO=' -1 ' npNLO=' 0 '>
  5     66 0.12487420E+02 0.46955337E+02 0.75467711E-02 0.11621082E+00
        2 -1    0    0  501    0 0.00000000E+00 0.00000000E+00 0.72691874E+03 0.72691874E+03 0.00000000E+00 0.0000E+00 0.9000E+01
       -2 -1    0    0    0  501 0.00000000E+00 0.00000000E+00 -.31762935E+01 0.31762935E+01 0.00000000E+00 0.0000E+00 0.9000E+01
       23  2    1    2    0    0 0.00000000E+00 0.00000000E+00 0.72374245E+03 0.73009504E+03 0.96102181E+02 0.0000E+00 0.0000E+00
      -11  1    3    3    0    0 -.16369145E+02 0.44761627E+02 0.31543879E+03 0.31901909E+03 0.00000000E+00 0.0000E+00 0.9000E+01
       11  1    3    3    0    0 0.16369145E+02 -.44761627E+02 0.40830366E+03 0.41107595E+03 0.00000000E+00 0.0000E+00 0.9000E+01
#aMCatNLO 1  0  0  1  2 0.39431915D+02 0.00000000D+00  -5  5  0 0.00000000D+00 0.00000000D+00 0.00000000D+00 0.00000000D+00 0.00000000D+00
  <mgrwgt>
 0.5956078794D+03    9    2    0
 0.480510906094541D+02 0.000000000000000D+00 0.000000000000000D+00 0.480510906094541D+02
 0.480510906094541D+02 0.000000000000000D+00 0.000000000000000D+00 -.480510906094541D+02
 0.480510906094541D+02 -.163691454255546D+02 0.447616266263750D+02 -.611188747900470D+01
 0.480510906094541D+02 0.163691454255546D+02 -.447616266263750D+02 0.611188747900470D+01
 0.000000000000000D+00 0.000000000000000D+00 -.000000000000000D+00 0.000000000000000D+00
 0.718262454017746D+02 0.000000000000000D+00 0.000000000000000D+00 0.718262454017746D+02
 0.617767902654480D+02 0.000000000000000D+00 0.000000000000000D+00 -.617767902654480D+02
 0.658430907021075D+02 -.213135863143045D+02 0.619974875545182D+02 -.611188747900470D+01
 0.351441686488123D+02 0.127574241164436D+02 -.321715021622138D+02 0.611188747900470D+01
 0.326157763163028D+02 0.855616219786083D+01 -.298259853923044D+02 0.100494551363266D+02
0.182331320336D-01 0.000000000000D+00 0.000000000000D+00 0.519040588196D-01 0.000000000000D+00  5 2 -2 -11 11 21 0 0.11183365D+00 0.48866054D-03 0.22715521D+04 0.92356292D+04 0.92356292D+04 0.12129279D+01  1  2  2  1  5  1        2 0.392357510640D+03
-.101286986287D-02 0.000000000000D+00 -.700200279031D-04 0.519040588196D-01 0.000000000000D+00  5 2 -2 -11 11 21 2 0.11183365D+00 0.48866054D-03 0.22715521D+04 0.92356292D+04 0.92356292D+04 0.12129279D+01  1  2  3  1  5  1        2 -.351751617560D+02
0.100537796827D-02 0.000000000000D+00 0.000000000000D+00 0.519040588196D-01 0.000000000000D+00  5 2 -2 -11 11 21 2 0.11183365D+00 0.48866054D-03 0.22715521D+04 0.92356292D+04 0.92356292D+04 0.12129279D+01  1  2 15  1  5  1        2 0.318287811117D+02
0.743070936256D-02 0.000000000000D+00 0.000000000000D+00 0.519040588196D-01 0.000000000000D+00  5 2 -2 -11 11 21 2 0.21491885D+00 0.48866054D-03 0.43031249D+04 0.10198427D+05 0.10198427D+05 0.12084487D+01  1  2 12  1  5  1        2 0.970355020131D+02
-.841868537843D-02 0.000000000000D+00 0.000000000000D+00 0.519040588196D-01 0.000000000000D+00  5 2 -2 -11 11 21 2 0.11183365D+00 0.48866054D-03 0.22715521D+04 0.92356292D+04 0.92356292D+04 0.12129279D+01  1  2  4  1  5  1        2 -.266523141161D+03
-.106892343465D-01 0.000000000000D+00 -.686796234118D-02 0.519040588196D-01 0.000000000000D+00  5 2 -2 -11 11 21 2 0.19782152D+00 0.48866054D-03 0.22715521D+04 0.92356292D+04 0.92356292D+04 0.12129279D+01  1  2  5  1  5  1        2 -.304115175083D+03
0.133575943768D-01 0.000000000000D+00 0.588459666203D-02 0.519040588196D-01 0.000000000000D+00  5 2 -2 -11 11 21 2 0.11183365D+00 0.48866054D-03 0.22715521D+04 0.92356292D+04 0.92356292D+04 0.12129279D+01  1  2  6  1  5  1        2 0.684183771522D+03
0.526752235590D-03 0.000000000000D+00 0.000000000000D+00 0.519040588196D-01 0.000000000000D+00  5 21 -2 -11 11 -2 2 0.21491885D+00 0.48866054D-03 0.43031249D+04 0.10198427D+05 0.10198427D+05 0.12084487D+01  1  2 12  3  5  1        2 0.301227280001D+01
-.316293352648D-03 0.000000000000D+00 -.431423191938D-03 0.519040588196D-01 0.000000000000D+00  5 21 -2 -11 11 -2 2 0.19782152D+00 0.48866054D-03 0.22715521D+04 0.92356292D+04 0.92356292D+04 0.12129279D+01  1  2  5  3  5  1        2 -.699648067708D+01
  </mgrwgt>
  </event>
  <event npLO=' -1 ' npNLO=' 0 '>
  5     66 0.12487420E+02 0.92037530E+02 0.75467711E-02 0.11783698E+00
        2 -1    0    0  501    0 0.00000000E+00 0.00000000E+00 0.49001483E+03 0.49001483E+03 0.00000000E+00 0.0000E+00 0.9000E+01
       -2 -1    0    0    0  501 0.00000000E+00 0.00000000E+00 -.43217605E+01 0.43217605E+01 0.00000000E+00 0.0000E+00 0.9000E+01
       23  2    1    2    0    0 0.00000000E+00 0.00000000E+00 0.48569307E+03 0.49433659E+03 0.92037530E+02 0.0000E+00 0.0000E+00
      -11  1    3    3    0    0 -.39106396E+02 -.22201167E+02 0.29534126E+03 0.29874515E+03 0.00000000E+00 0.0000E+00 0.9000E+01
       11  1    3    3    0    0 0.39106396E+02 0.22201167E+02 0.19035181E+03 0.19559144E+03 0.00000000E+00 0.0000E+00 0.9000E+01
#aMCatNLO 1  0  0  1  2 0.39431915D+02 0.00000000D+00  -5  5  0 0.00000000D+00 0.00000000D+00 0.00000000D+00 0.00000000D+00 0.00000000D+00
  <mgrwgt>
 0.1124693093D+02    1    2    0
 0.460187651364057D+02 0.000000000000000D+00 0.000000000000000D+00 0.460187651364057D+02
 0.460187651364057D+02 0.000000000000000D+00 0.000000000000000D+00 -.460187651364057D+02
 0.460187651364057D+02 -.391063959670399D+02 -.222011670671162D+02 0.977367484658402D+01
 0.460187651364057D+02 0.391063959670399D+02 0.222011670671162D+02 -.977367484658402D+01
 0.000000000000000D+00 -.000000000000000D+00 0.000000000000000D+00 -.000000000000000D+00
 0.153324588282017D+03 0.000000000000000D+00 0.000000000000000D+00 0.153324588282017D+03
 0.443057436144568D+03 0.000000000000000D+00 0.000000000000000D+00 -.443057436144568D+03
 0.447870499337027D+02 0.183193623387432D+02 -.396831965100982D+02 0.977367484658402D+01
 0.190127226009417D+03 0.188445539081935D+03 -.232619034076775D+02 -.977367484658402D+01
 0.361467748483465D+03 -.206764901420678D+03 0.629450999177756D+02 -.289732847862551D+03
0.349076710999D-03 0.000000000000D+00 0.000000000000D+00 0.432505970367D+00 0.000000000000D+00  5 2 -2 -11 11 21 2 0.75386896D-01 0.66488624D-03 0.20222020D+04 0.84709070D+04 0.84709070D+04 0.12168744D+01  1  2 14  1  5  1        2 0.112469309336D+02
  </mgrwgt>
  </event>
  <event npLO=' -1 ' npNLO=' 0 '>
  5     66 -.12487420E+02 0.87051140E+02 0.75467711E-02 0.11777315E+00
        4 -1    0    0  501    0 0.00000000E+00 0.00000000E+00 0.54680728E+02 0.54680728E+02 0.00000000E+00 0.0000E+00 0.9000E+01
       -4 -1    0    0    0  501 0.00000000E+00 0.00000000E+00 -.39008191E+02 0.39008191E+02 0.00000000E+00 0.0000E+00 0.9000E+01
       23  2    1    2    0    0 0.00000000E+00 0.00000000E+00 0.15672537E+02 0.93688919E+02 0.92368745E+02 0.0000E+00 0.0000E+00
      -13  1    3    3    0    0 -.56791171E+01 -.42443055E+02 -.97121917E+01 0.43908905E+02 0.00000000E+00 0.0000E+00 0.9000E+01
       13  1    3    3    0    0 0.56791171E+01 0.42443055E+02 0.25384729E+02 0.49780013E+02 0.00000000E+00 0.0000E+00 0.9000E+01
#aMCatNLO 1  0  0  2  2 0.14967370D+00 0.00000000D+00  -5  5  0 0.00000000D+00 0.00000000D+00 0.00000000D+00 0.00000000D+00 0.00000000D+00
  <mgrwgt>
 -.2045981751D+03    9    2    0
 0.461843724748520D+02 0.000000000000000D+00 0.000000000000000D+00 0.461843724748520D+02
 0.461843724748520D+02 0.000000000000000D+00 0.000000000000000D+00 -.461843724748520D+02
 0.461843724748520D+02 -.567911713995899D+01 -.424430549200953D+02 -.173011843079098D+02
 0.461843724748520D+02 0.567911713995899D+01 0.424430549200953D+02 0.173011843079098D+02
 0.000000000000000D+00 -.000000000000000D+00 -.000000000000000D+00 -.000000000000000D+00
 0.462333643789277D+02 0.000000000000000D+00 0.000000000000000D+00 0.462333643789277D+02
 0.462498293579888D+02 0.000000000000000D+00 0.000000000000000D+00 -.462498293579888D+02
 0.461733525924607D+02 -.562270742156181D+01 -.424385752873839D+02 -.173011843079098D+02
 0.461954617072994D+02 0.573554036203376D+01 0.424475356251666D+02 0.173011843079098D+02
 0.114379437156366D+00 -.112832940471944D+00 -.896033778267385D-02 -.164649790610894D-01
0.113227305053D-01 0.000000000000D+00 0.000000000000D+00 0.461539542952D+00 0.000000000000D+00  5 4 -4 -13 13 21 0 0.84124197D-02 0.60012601D-02 0.18336653D+04 0.85319850D+04 0.85319850D+04 0.12165448D+01  1  2  2  2  5  2       -4 0.391568123179D+02
-.624668726057D-03 0.000000000000D+00 -.434822664838D-04 0.461539542952D+00 0.000000000000D+00  5 4 -4 -13 13 21 2 0.84124197D-02 0.60012601D-02 0.18336653D+04 0.85319850D+04 0.85319850D+04 0.12165448D+01  1  2  3  2  5  2       -4 -.353931273862D+01
0.571444315648D-03 0.000000000000D+00 0.000000000000D+00 0.461539542952D+00 0.000000000000D+00  5 4 -4 -13 13 21 2 0.84124197D-02 0.60012601D-02 0.18336653D+04 0.85319850D+04 0.85319850D+04 0.12165448D+01  1  2 15  2  5  2       -4 0.292473327818D+01
-.669566241144D+00 0.000000000000D+00 0.000000000000D+00 0.461539542952D+00 0.000000000000D+00  5 4 -4 -13 13 21 2 0.84124197D-02 0.60012601D-02 0.18336653D+04 0.85319850D+04 0.85319850D+04 0.12165448D+01  1  2  4  2  5  2       -4 -.342693524775D+04
-.666484395736D+01 0.000000000000D+00 -.540218681330D+00 0.461539542952D+00 0.000000000000D+00  5 4 -4 -13 13 21 2 0.84124197D-02 0.60160520D-02 0.18336653D+04 0.85319850D+04 0.85319850D+04 0.12165448D+01  1  2  5  2  5  2       -4 -.382115093787D+05
0.666615528847D+01 0.000000000000D+00 0.540217044389D+00 0.461539542952D+00 0.000000000000D+00  5 4 -4 -13 13 21 2 0.84124197D-02 0.60012601D-02 0.18336653D+04 0.85319850D+04 0.85319850D+04 0.12165448D+01  1  2  6  2  5  2       -4 0.383693907271D+05
0.669567197181D+00 0.000000000000D+00 0.000000000000D+00 0.461539542952D+00 0.284355993729D+03  5 4 -4 -13 13 21 2 0.84213435D-02 0.60097657D-02 0.18385185D+04 0.85319979D+04 0.85319979D+04 0.12165447D+01  1  2 11  2  5  2       -4 0.341318742601D+04
-.306381718969D-02 0.000000000000D+00 -.248436795371D-03 0.461539542952D+00 0.000000000000D+00  5 4 21 -13 13 4 2 0.84124197D-02 0.60160520D-02 0.18336653D+04 0.85319850D+04 0.85319850D+04 0.12165448D+01  1  2  5  4  5  2       -4 -.423187123234D+03
0.292441296515D-03 0.000000000000D+00 0.000000000000D+00 0.461539542952D+00 0.753755586731D-01  5 4 21 -13 13 4 2 0.84213435D-02 0.60097657D-02 0.18385185D+04 0.85319979D+04 0.85319979D+04 0.12165447D+01  1  2 11  4  5  2       -4 0.359131885465D+02
  </mgrwgt>
  </event>
  <event npLO=' -1 ' npNLO=' 0 '>
  5     66 0.12487420E+02 0.32731460E+02 0.75467711E-02 0.11780232E+00
        2 -1    0    0  501    0 0.00000000E+00 0.00000000E+00 0.64321970E+02 0.64321970E+02 0.00000000E+00 0.0000E+00 0.9000E+01
       -2 -1    0    0    0  501 0.00000000E+00 0.00000000E+00 -.32314833E+02 0.32314833E+02 0.00000000E+00 0.0000E+00 0.9000E+01
       23  2    1    2    0    0 0.00000000E+00 0.00000000E+00 0.32007137E+02 0.96636802E+02 0.91182316E+02 0.0000E+00 0.0000E+00
      -13  1    3    3    0    0 0.44527473E+01 -.41838073E+02 -.26053182E+01 0.42154940E+02 0.00000000E+00 0.0000E+00 0.9000E+01
       13  1    3    3    0    0 -.44527473E+01 0.41838073E+02 0.34612455E+02 0.54481862E+02 0.00000000E+00 0.0000E+00 0.9000E+01
#aMCatNLO 1  0  0  1  2 0.18598962D+02 0.00000000D+00  -5  5  0 0.00000000D+00 0.00000000D+00 0.00000000D+00 0.00000000D+00 0.00000000D+00
  <mgrwgt>
 0.4173934468D+03    9    2    0
 0.455911580330163D+02 0.000000000000000D+00 0.000000000000000D+00 0.455911580330163D+02
 0.455911580330163D+02 0.000000000000000D+00 0.000000000000000D+00 -.455911580330163D+02
 0.455911580330163D+02 0.445274731322824D+01 -.418380726802559D+02 -.175585422674444D+02
 0.455911580330163D+02 -.445274731322824D+01 0.418380726802559D+02 0.175585422674444D+02
 0.000000000000000D+00 0.000000000000000D+00 0.000000000000000D+00 0.000000000000000D+00
 0.538158408759570D+02 0.000000000000000D+00 0.000000000000000D+00 0.538158408759570D+02
 0.522653098101234D+02 0.000000000000000D+00 0.000000000000000D+00 -.522653098101234D+02
 0.505841831640266D+02 -.110927346288999D+00 -.474388540643427D+02 -.175585422674444D+02
 0.416330534558902D+02 -.859167646818439D+01 0.367585613016808D+02 0.175585422674444D+02
 0.138639140661636D+02 0.870260381447339D+01 0.106802927626619D+02 0.155053106583360D+01
0.236458579355D-01 0.000000000000D+00 0.000000000000D+00 0.818389690935D+00 0.000000000000D+00  5 2 -2 -13 13 21 0 0.98956876D-02 0.49715127D-02 0.17702513D+04 0.83142148D+04 0.83142148D+04 0.12177323D+01  1  2  2  1  5  1        2 0.293423871992D+03
-.130336608023D-02 0.000000000000D+00 -.908063205697D-04 0.818389690935D+00 0.000000000000D+00  5 2 -2 -13 13 21 2 0.98956876D-02 0.49715127D-02 0.17702513D+04 0.83142148D+04 0.83142148D+04 0.12177323D+01  1  2  3  1  5  1        2 -.265680613495D+02
0.127857458206D-02 0.000000000000D+00 0.000000000000D+00 0.818389690935D+00 0.000000000000D+00  5 2 -2 -13 13 21 2 0.98956876D-02 0.49715127D-02 0.17702513D+04 0.83142148D+04 0.83142148D+04 0.12177323D+01  1  2 15  1  5  1        2 0.235271895523D+02
0.163524304182D-01 0.000000000000D+00 0.000000000000D+00 0.818389690935D+00 0.000000000000D+00  5 2 -2 -13 13 21 2 0.13390858D-01 0.49715127D-02 0.24485281D+04 0.85040187D+04 0.85040187D+04 0.12166954D+01  1  2 12  1  5  1        2 0.208671858301D+03
-.165462881346D-01 0.000000000000D+00 0.000000000000D+00 0.818389690935D+00 0.000000000000D+00  5 2 -2 -13 13 21 2 0.98956876D-02 0.49715127D-02 0.17702513D+04 0.83142148D+04 0.83142148D+04 0.12177323D+01  1  2  4  1  5  1        2 -.304470042494D+03
-.391460280893D-01 0.000000000000D+00 -.149520963995D-01 0.818389690935D+00 0.000000000000D+00  5 2 -2 -13 13 21 2 0.13344771D-01 0.49715127D-02 0.17702513D+04 0.83142148D+04 0.83142148D+04 0.12177323D+01  1  2  5  1  5  1        2 -.797973961678D+03
0.423538234874D-01 0.000000000000D+00 0.143076474723D-01 0.818389690935D+00 0.000000000000D+00  5 2 -2 -13 13 21 2 0.98956876D-02 0.49715127D-02 0.17702513D+04 0.83142148D+04 0.83142148D+04 0.12177323D+01  1  2  6  1  5  1        2 0.118660539382D+04
0.635867271290D-03 0.000000000000D+00 0.000000000000D+00 0.818389690935D+00 0.000000000000D+00  5 21 -2 -13 13 -2 2 0.13390858D-01 0.49715127D-02 0.24485281D+04 0.85040187D+04 0.85040187D+04 0.12166954D+01  1  2 12  3  5  1        2 0.729679182700D+02
-.117608546283D-02 0.000000000000D+00 -.576619869403D-03 0.818389690935D+00 0.000000000000D+00  5 21 -2 -13 13 -2 2 0.13344771D-01 0.49715127D-02 0.17702513D+04 0.83142148D+04 0.83142148D+04 0.12177323D+01  1  2  5  3  5  1        2 -.238790719581D+03
  </mgrwgt>
  </event>
  <event npLO=' -1 ' npNLO=' 0 '>
  5     66 0.12487420E+02 0.92896414E+02 0.75467711E-02 0.11248280E+00
        2 -1    0    0  501    0 0.00000000E+00 0.00000000E+00 0.23824787E+03 0.23824787E+03 0.00000000E+00 0.0000E+00 0.9000E+01
       -2 -1    0    0    0  501 0.00000000E+00 0.00000000E+00 -.90554261E+01 0.90554261E+01 0.00000000E+00 0.0000E+00 0.9000E+01
       23  2    1    2    0    0 0.00000000E+00 0.00000000E+00 0.22919244E+03 0.24730329E+03 0.92896414E+02 0.0000E+00 0.0000E+00
      -11  1    3    3    0    0 0.21836909E+02 0.40884466E+02 0.10658950E+03 0.11623129E+03 0.00000000E+00 0.0000E+00 0.9000E+01
       11  1    3    3    0    0 -.21836909E+02 -.40884466E+02 0.12260293E+03 0.13107200E+03 0.00000000E+00 0.0000E+00 0.9000E+01
#aMCatNLO 1  0  0  2  1 0.11333597D+03 0.00000000D+00  -5  5  0 0.00000000D+00 0.00000000D+00 0.00000000D+00 0.00000000D+00 0.00000000D+00
  <mgrwgt>
 0.4319635272D+03    5    2    0
 0.464482070657802D+02 0.000000000000000D+00 0.000000000000000D+00 0.464482070657802D+02
 0.464482070657802D+02 0.000000000000000D+00 0.000000000000000D+00 -.464482070657802D+02
 0.464482070657802D+02 0.218369085845138D+02 0.408844660643898D+02 -.300762326878476D+01
 0.464482070657802D+02 -.218369085845138D+02 -.408844660643898D+02 0.300762326878476D+01
 0.000000000000000D+00 -.000000000000000D+00 0.000000000000000D+00 -.000000000000000D+00
 0.970129906894561D+02 0.000000000000000D+00 0.000000000000000D+00 0.970129906894561D+02
 0.116961547904409D+03 0.000000000000000D+00 0.000000000000000D+00 -.116961547904409D+03
 0.490152246515034D+02 0.470307773144036D+02 0.134741394943567D+02 -.300762326878476D+01
 0.772075080740210D+02 0.107972194673563D+02 -.763896168143735D+02 0.300762326878476D+01
 0.877518058683413D+02 -.578279967817600D+02 0.629154773200168D+02 -.199485572149533D+02
0.265468224510D-01 0.000000000000D+00 0.000000000000D+00 0.243587362062D+00 0.000000000000D+00  5 2 -2 -11 11 21 0 0.36653518D-01 0.13931425D-02 0.21483901D+04 0.86297438D+04 0.86297438D+04 0.12160227D+01  1  2  2  2  5  2       -2 0.450490108060D+03
-.147481555536D-02 0.000000000000D+00 -.101946788151D-03 0.243587362062D+00 0.000000000000D+00  5 2 -2 -11 11 21 2 0.36653518D-01 0.13931425D-02 0.21483901D+04 0.86297438D+04 0.86297438D+04 0.12160227D+01  1  2  3  2  5  2       -2 -.405649708273D+02
0.137375318945D-02 0.000000000000D+00 0.000000000000D+00 0.243587362062D+00 0.000000000000D+00  5 2 -2 -11 11 21 2 0.36653518D-01 0.13931425D-02 0.21483901D+04 0.86297438D+04 0.86297438D+04 0.12160227D+01  1  2 15  2  5  2       -2 0.344718655161D+02
0.147933421389D-01 0.000000000000D+00 -.105144899811D-01 0.243587362062D+00 0.000000000000D+00  5 2 -2 -11 11 21 2 0.36653518D-01 0.73154452D-02 0.21483901D+04 0.86297438D+04 0.86297438D+04 0.12160227D+01  1  2  5  2  5  2       -2 0.403192135953D+00
0.259988837932D-02 0.000000000000D+00 -.213053303566D-02 0.243587362062D+00 0.000000000000D+00  5 2 21 -11 11 2 2 0.36653518D-01 0.73154452D-02 0.21483901D+04 0.86297438D+04 0.86297438D+04 0.12160227D+01  1  2  5  4  5  2       -2 -.128366676527D+02
  </mgrwgt>
  </event>
  <event npLO=' -1 ' npNLO=' 0 '>
  5     66 0.12487420E+02 0.82058580E+02 0.75467711E-02 0.11693279E+00
        2 -1    0    0  501    0 0.00000000E+00 0.00000000E+00 0.38919025E+03 0.38919025E+03 0.00000000E+00 0.0000E+00 0.9000E+01
       -2 -1    0    0    0  501 0.00000000E+00 0.00000000E+00 -.43253977E+01 0.43253977E+01 0.00000000E+00 0.0000E+00 0.9000E+01
       23  2    1    2    0    0 0.00000000E+00 0.00000000E+00 0.38486485E+03 0.39351565E+03 0.82058580E+02 0.0000E+00 0.0000E+00
      -13  1    3    3    0    0 -.19345835E+01 -.37905898E+02 0.26715726E+03 0.26983995E+03 0.00000000E+00 0.0000E+00 0.9000E+01
       13  1    3    3    0    0 0.19345835E+01 0.37905898E+02 0.11770760E+03 0.12367570E+03 0.00000000E+00 0.0000E+00 0.9000E+01
#aMCatNLO 1  0  0  2  1 0.12758649D+03 0.00000000D+00  -5  5  0 0.00000000D+00 0.00000000D+00 0.00000000D+00 0.00000000D+00 0.00000000D+00
  <mgrwgt>
 0.5389576968D+03    3    2    0
 0.410292899282673D+02 0.000000000000000D+00 0.000000000000000D+00 0.410292899282673D+02
 0.410292899282673D+02 0.000000000000000D+00 0.000000000000000D+00 -.410292899282673D+02
 0.410292899282673D+02 -.193458349384444D+01 -.379058982434307D+02 0.155821339065557D+02
 0.410292899282673D+02 0.193458349384444D+01 0.379058982434307D+02 -.155821339065557D+02
 0.000000000000000D+00 0.000000000000000D+00 -.000000000000000D+00 0.000000000000000D+00
 0.141632594894421D+03 0.000000000000000D+00 0.000000000000000D+00 0.141632594894421D+03
 0.555540449650388D+02 0.000000000000000D+00 0.000000000000000D+00 -.555540449650388D+02
 0.365102337218567D+02 -.206550597567958D+02 -.257597122613193D+02 0.155821339065557D+02
 0.603692119049397D+02 -.225461994321976D+02 0.537894761092284D+02 -.155821339065557D+02
 0.100307194232664D+03 0.432012591889934D+02 -.280297638479091D+02 0.860785499293825D+02
0.200959414421D-01 0.000000000000D+00 0.000000000000D+00 0.142461687705D-01 0.000000000000D+00  5 2 -2 -13 13 21 0 0.59875423D-01 0.66544581D-03 0.14405997D+04 0.67336105D+04 0.67336105D+04 0.12275558D+01  1  2  2  2  5  2       -2 0.548321175769D+03
-.110820823284D-02 0.000000000000D+00 -.771737065207D-04 0.142461687705D-01 0.000000000000D+00  5 2 -2 -13 13 21 2 0.59875423D-01 0.66544581D-03 0.14405997D+04 0.67336105D+04 0.67336105D+04 0.12275558D+01  1  2  3  2  5  2       -2 -.504579339391D+02
0.999479974943D-03 0.000000000000D+00 0.000000000000D+00 0.142461687705D-01 0.000000000000D+00  5 2 -2 -13 13 21 2 0.59875423D-01 0.66544581D-03 0.14405997D+04 0.67336105D+04 0.67336105D+04 0.12275558D+01  1  2 15  2  5  2       -2 0.410944549775D+02
  </mgrwgt>
  </event>
  <event npLO=' -1 ' npNLO=' 0 '>
  5     66 0.12487420E+02 0.46992611E+02 0.75467711E-02 0.11706697E+00
        4 -1    0    0  501    0 0.00000000E+00 0.00000000E+00 0.16413419E+02 0.16413419E+02 0.00000000E+00 0.0000E+00 0.9000E+01
       -4 -1    0    0    0  501 0.00000000E+00 0.00000000E+00 -.13693204E+03 0.13693204E+03 0.00000000E+00 0.0000E+00 0.9000E+01
       23  2    1    2    0    0 0.00000000E+00 0.00000000E+00 -.12051862E+03 0.15334546E+03 0.94816092E+02 0.0000E+00 0.0000E+00
      -11  1    3    3    0    0 -.11175159E+02 -.46054457E+02 -.62321381E+02 0.78293369E+02 0.00000000E+00 0.0000E+00 0.9000E+01
       11  1    3    3    0    0 0.11175159E+02 0.46054457E+02 -.58197238E+02 0.75052086E+02 0.00000000E+00 0.0000E+00 0.9000E+01
#aMCatNLO 1  0  0  2  1 0.16560074D+02 0.00000000D+00  -5  5  0 0.00000000D+00 0.00000000D+00 0.00000000D+00 0.00000000D+00 0.00000000D+00
  <mgrwgt>
 0.1180402678D+03    9    2    0
 0.474080460715506D+02 0.000000000000000D+00 0.000000000000000D+00 0.474080460715506D+02
 0.474080460715506D+02 0.000000000000000D+00 0.000000000000000D+00 -.474080460715506D+02
 0.474080460715506D+02 -.111751594706820D+02 -.460544567110914D+02 -.127501379337343D+01
 0.474080460715506D+02 0.111751594706820D+02 0.460544567110914D+02 0.127501379337343D+01
 0.000000000000000D+00 0.000000000000000D+00 -.000000000000000D+00 -.000000000000000D+00
 0.498581102232075D+02 0.000000000000000D+00 0.000000000000000D+00 0.498581102232075D+02
 0.834217002326373D+02 0.000000000000000D+00 0.000000000000000D+00 -.834217002326373D+02
 0.418284760133263D+02 -.142693693620000D+02 -.392986112150918D+02 -.127501379337343D+01
 0.543116840846806D+02 0.764810364378369D+01 0.537553706953528D+02 0.127501379337343D+01
 0.371396503578378D+02 0.662126571821632D+01 -.144567594802611D+02 -.335635900094298D+02
0.334651052772D-01 0.000000000000D+00 0.000000000000D+00 0.777593498667D-01 0.000000000000D+00  5 4 -4 -11 11 21 0 0.25251413D-02 0.21066467D-01 0.22458972D+04 0.89900913D+04 0.89900913D+04 0.12141539D+01  1  2  2  2  5  2       -4 0.908386852983D+02
-.185917221953D-02 0.000000000000D+00 -.128514815829D-03 0.777593498667D-01 0.000000000000D+00  5 4 -4 -11 11 21 2 0.25251413D-02 0.21066467D-01 0.22458972D+04 0.89900913D+04 0.89900913D+04 0.12141539D+01  1  2  3  2  5  2       -4 -.815281639658D+01
0.180090307142D-02 0.000000000000D+00 0.000000000000D+00 0.777593498667D-01 0.000000000000D+00  5 4 -4 -11 11 21 2 0.25251413D-02 0.21066467D-01 0.22458972D+04 0.89900913D+04 0.89900913D+04 0.12141539D+01  1  2 15  2  5  2       -4 0.720636841085D+01
0.650445073602D-01 0.000000000000D+00 0.000000000000D+00 0.777593498667D-01 0.000000000000D+00  5 4 -4 -11 11 21 2 0.25251413D-02 0.38985441D-01 0.31363735D+04 0.92429304D+04 0.92429304D+04 0.12128920D+01  1  2 12  2  5  2       -4 0.786571803899D+02
-.579999628677D-01 0.000000000000D+00 0.000000000000D+00 0.777593498667D-01 0.000000000000D+00  5 4 -4 -11 11 21 2 0.25251413D-02 0.21066467D-01 0.22458972D+04 0.89900913D+04 0.89900913D+04 0.12141539D+01  1  2  4  2  5  2       -4 -.232088615358D+03
-.663795823275D-01 0.000000000000D+00 -.101457370643D-01 0.777593498667D-01 0.000000000000D+00  5 4 -4 -11 11 21 2 0.25251413D-02 0.38455842D-01 0.22458972D+04 0.89900913D+04 0.89900913D+04 0.12141539D+01  1  2  5  2  5  2       -4 -.999320614853D+02
0.624299134055D-01 0.000000000000D+00 0.855003503638D-02 0.777593498667D-01 0.000000000000D+00  5 4 -4 -11 11 21 2 0.25251413D-02 0.21066467D-01 0.22458972D+04 0.89900913D+04 0.89900913D+04 0.12141539D+01  1  2  6  2  5  2       -4 0.297269554163D+03
0.436699465036D-02 0.000000000000D+00 0.000000000000D+00 0.777593498667D-01 0.000000000000D+00  5 4 21 -11 11 4 2 0.25251413D-02 0.38985441D-01 0.31363735D+04 0.92429304D+04 0.92429304D+04 0.12128920D+01  1  2 12  4  5  2       -4 0.135554576648D+03
-.381793682129D-02 0.000000000000D+00 -.667704187090D-03 0.777593498667D-01 0.000000000000D+00  5 4 21 -11 11 4 2 0.25251413D-02 0.38455842D-01 0.22458972D+04 0.89900913D+04 0.89900913D+04 0.12141539D+01  1  2  5  4  5  2       -4 -.151312603852D+03
  </mgrwgt>
  </event>
  <event npLO=' -1 ' npNLO=' 0 '>
  5     66 0.12487420E+02 0.52210333E+02 0.75467711E-02 0.11786237E+00
        2 -1    0    0  501    0 0.00000000E+00 0.00000000E+00 0.71066317E+01 0.71066317E+01 0.00000000E+00 0.0000E+00 0.9000E+01
       -2 -1    0    0    0  501 0.00000000E+00 0.00000000E+00 -.28451419E+03 0.28451419E+03 0.00000000E+00 0.0000E+00 0.9000E+01
       23  2    1    2    0    0 0.00000000E+00 0.00000000E+00 -.27740756E+03 0.29162083E+03 0.89931921E+02 0.0000E+00 0.0000E+00
      -13  1    3    3    0    0 -.13222079E+02 -.17361169E+02 -.11216213E+02 0.24536442E+02 0.00000000E+00 0.0000E+00 0.9000E+01
       13  1    3    3    0    0 0.13222079E+02 0.17361169E+02 -.26619135E+03 0.26708438E+03 0.00000000E+00 0.0000E+00 0.9000E+01
#aMCatNLO 1  0  0  2  1 0.34081031D+02 0.00000000D+00  -5  5  0 0.00000000D+00 0.00000000D+00 0.00000000D+00 0.00000000D+00 0.00000000D+00
  <mgrwgt>
 0.3514455919D+03    6    2    0
 0.449659603027786D+02 0.000000000000000D+00 0.000000000000000D+00 0.449659603027786D+02
 0.449659603027786D+02 0.000000000000000D+00 0.000000000000000D+00 -.449659603027786D+02
 0.449659603027786D+02 -.132220793010839D+02 -.173611685174519D+02 0.393154426735290D+02
 0.449659603027786D+02 0.132220793010839D+02 0.173611685174519D+02 -.393154426735290D+02
 0.000000000000000D+00 -.000000000000000D+00 0.000000000000000D+00 0.000000000000000D+00
 0.613751384144068D+02 0.000000000000000D+00 0.000000000000000D+00 0.613751384144068D+02
 0.517727804308671D+02 0.000000000000000D+00 0.000000000000000D+00 -.517727804308671D+02
 0.432461529002711D+02 -.403253578009192D+01 -.175574589061276D+02 0.393154426735290D+02
 0.486600739938244D+02 0.229756209137429D+02 0.171528310228050D+02 -.393154426735290D+02
 0.212416919511784D+02 -.189430851336509D+02 0.404627883322609D+00 0.960235798353967D+01
0.527357576944D-01 0.000000000000D+00 0.000000000000D+00 0.493097116222D+00 0.000000000000D+00  5 2 -2 -13 13 21 0 0.10933279D-02 0.43771415D-01 0.47623355D+03 0.80877503D+04 0.80877503D+04 0.12190047D+01  1  2  2  2  5  2       -2 0.369472584827D+03
-.106796616024D-02 0.000000000000D+00 -.202519195190D-03 0.493097116222D+00 0.000000000000D+00  5 2 -2 -13 13 21 2 0.10933279D-02 0.43771415D-01 0.47623355D+03 0.80877503D+04 0.80877503D+04 0.12190047D+01  1  2  3  2  5  2       -2 -.170898954234D+02
0.172622199447D-02 0.000000000000D+00 0.000000000000D+00 0.493097116222D+00 0.000000000000D+00  5 2 -2 -13 13 21 2 0.10933279D-02 0.43771415D-01 0.47623355D+03 0.80877503D+04 0.80877503D+04 0.12190047D+01  1  2 15  2  5  2       -2 0.179715048318D+02
0.115183242595D-01 0.000000000000D+00 0.000000000000D+00 0.493097116222D+00 0.000000000000D+00  5 2 -2 -13 13 21 2 0.10933279D-02 0.68788654D-01 0.10769643D+04 0.84467545D+04 0.84467545D+04 0.12170054D+01  1  2 12  2  5  2       -2 0.500862827372D+02
-.921969709435D-02 0.000000000000D+00 0.000000000000D+00 0.493097116222D+00 0.000000000000D+00  5 2 -2 -13 13 21 2 0.10933279D-02 0.43771415D-01 0.47623355D+03 0.80877503D+04 0.80877503D+04 0.12190047D+01  1  2  4  2  5  2       -2 -.959852391002D+02
0.600627726585D-03 0.000000000000D+00 0.000000000000D+00 0.493097116222D+00 0.000000000000D+00  5 2 21 -13 13 2 2 0.10933279D-02 0.68788654D-01 0.10769643D+04 0.84467545D+04 0.84467545D+04 0.12170054D+01  1  2 12  4  5  2       -2 0.269903540324D+02
  </mgrwgt>
  </event>
  <event npLO=' -1 ' npNLO=' 0 '>
  5     66 0.12487420E+02 0.92689179E+02 0.75467711E-02 0.11584485E+00
        2 -1    0    0  501    0 0.00000000E+00 0.00000000E+00 0.29747500E+01 0.29747500E+01 0.00000000E+00 0.0000E+00 0.9000E+01
       -2 -1    0    0    0  501 0.00000000E+00 0.00000000E+00 -.72201730E+03 0.72201730E+03 0.00000000E+00 0.0000E+00 0.9000E+01
       23  2    1    2    0    0 0.00000000E+00 0.00000000E+00 -.71904255E+03 0.72499205E+03 0.92689179E+02 0.0000E+00 0.0000E+00
      -11  1    3    3    0    0 -.42703500E+02 -.17759708E+02 -.33628550E+03 0.33945093E+03 0.00000000E+00 0.0000E+00 0.9000E+01
       11  1    3    3    0    0 0.42703500E+02 0.17759708E+02 -.38275705E+03 0.38554112E+03 0.00000000E+00 0.0000E+00 0.9000E+01
#aMCatNLO 1  0  0  2  1 0.10152998D+03 0.00000000D+00  -5  5  0 0.00000000D+00 0.00000000D+00 0.00000000D+00 0.00000000D+00 0.00000000D+00
  <mgrwgt>
 0.8631753101D+03    3    2    0
 0.463445893309831D+02 0.000000000000000D+00 0.000000000000000D+00 0.463445893309831D+02
 0.463445893309831D+02 0.000000000000000D+00 0.000000000000000D+00 -.463445893309831D+02
 0.463445893309831D+02 -.427034998551640D+02 -.177597083345204D+02 0.297065990147823D+01
 0.463445893309831D+02 0.427034998551640D+02 0.177597083345204D+02 -.297065990147823D+01
 0.000000000000000D+00 0.000000000000000D+00 0.000000000000000D+00 0.000000000000000D+00
 0.114488902529214D+03 0.000000000000000D+00 0.000000000000000D+00 0.114488902529214D+03
 0.597241648794305D+02 0.000000000000000D+00 0.000000000000000D+00 -.597241648794305D+02
 0.740585523702392D+02 -.693362363947455D+02 -.258520924015286D+02 0.297065990147823D+01
 0.290976021643711D+02 0.260159617919938D+02 0.126891829328481D+02 -.297065990147823D+01
 0.710569128740346D+02 0.433202746027517D+02 0.131629094686805D+02 0.547647376497838D+02
0.274736326426D+00 0.000000000000D+00 0.000000000000D+00 0.266383675869D+00 0.000000000000D+00  5 2 -2 -11 11 21 0 0.45765385D-03 0.11107958D+00 0.21389961D+04 0.85912838D+04 0.85912838D+04 0.12162273D+01  1  2  2  2  5  2       -2 0.873852549153D+03
-.152630506014D-01 0.000000000000D+00 -.105505983321D-02 0.266383675869D+00 0.000000000000D+00  5 2 -2 -11 11 21 2 0.45765385D-03 0.11107958D+00 0.21389961D+04 0.85912838D+04 0.85912838D+04 0.12162273D+01  1  2  3  2  5  2       -2 -.787132723821D+02
0.144606370371D-01 0.000000000000D+00 0.000000000000D+00 0.266383675869D+00 0.000000000000D+00  5 2 -2 -11 11 21 2 0.45765385D-03 0.11107958D+00 0.21389961D+04 0.85912838D+04 0.85912838D+04 0.12162273D+01  1  2 15  2  5  2       -2 0.680360333632D+02
  </mgrwgt>
  </event>
  <event npLO=' -1 ' npNLO=' 0 '>
  5     66 0.12487420E+02 0.90832597E+02 0.75467711E-02 0.11644593E+00
        2 -1    0    0  501    0 0.00000000E+00 0.00000000E+00 0.16237178E+03 0.16237178E+03 0.00000000E+00 0.0000E+00 0.9000E+01
       -2 -1    0    0    0  501 0.00000000E+00 0.00000000E+00 -.12703194E+02 0.12703194E+02 0.00000000E+00 0.0000E+00 0.9000E+01
       23  2    1    2    0    0 0.00000000E+00 0.00000000E+00 0.14966858E+03 0.17507497E+03 0.90832597E+02 0.0000E+00 0.0000E+00
      -13  1    3    3    0    0 -.23167712E+02 -.20625018E+02 0.10893424E+02 0.32875537E+02 0.00000000E+00 0.0000E+00 0.9000E+01
       13  1    3    3    0    0 0.23167712E+02 0.20625018E+02 0.13877516E+03 0.14219944E+03 0.00000000E+00 0.0000E+00 0.9000E+01
#aMCatNLO 1  0  0  1  2 0.18758989D+03 0.00000000D+00  -5  5  0 0.00000000D+00 0.00000000D+00 0.00000000D+00 0.00000000D+00 0.00000000D+00
  <mgrwgt>
 0.3603018122D+03    3    2    0
 0.454162983189695D+02 0.000000000000000D+00 0.000000000000000D+00 0.454162983189695D+02
 0.454162983189695D+02 0.000000000000000D+00 0.000000000000000D+00 -.454162983189695D+02
 0.454162983189695D+02 -.231677118645703D+02 -.206250178632368D+02 -.331738740291067D+02
 0.454162983189695D+02 0.231677118645703D+02 0.206250178632368D+02 0.331738740291067D+02
 0.000000000000000D+00 -.000000000000000D+00 -.000000000000000D+00 -.000000000000000D+00
 0.518911399084353D+02 0.000000000000000D+00 0.000000000000000D+00 0.518911399084353D+02
 0.251217668521547D+03 0.000000000000000D+00 0.000000000000000D+00 -.251217668521547D+03
 0.359467392722769D+02 -.116577804143281D+02 -.746714818530599D+01 -.331738740291067D+02
 0.636782859186878D+02 0.386006556599627D+02 0.382675784713915D+02 0.331738740291067D+02
 0.203483783239018D+03 -.269428752456346D+02 -.308004302860855D+02 -.199326528613112D+03
0.226909504666D-01 0.000000000000D+00 0.000000000000D+00 0.100976349079D+01 0.000000000000D+00  5 2 -2 -13 13 21 0 0.24980274D-01 0.19543375D-02 0.96213423D+03 0.82505606D+04 0.82505606D+04 0.12180859D+01  1  2  2  1  5  1        2 0.362518412465D+03
-.103777421919D-02 0.000000000000D+00 -.871392244563D-04 0.100976349079D+01 0.000000000000D+00  5 2 -2 -13 13 21 2 0.24980274D-01 0.19543375D-02 0.96213423D+03 0.82505606D+04 0.82505606D+04 0.12180859D+01  1  2  3  1  5  1        2 -.290387965758D+02
0.113151701562D-02 0.000000000000D+00 0.000000000000D+00 0.100976349079D+01 0.000000000000D+00  5 2 -2 -13 13 21 2 0.24980274D-01 0.19543375D-02 0.96213423D+03 0.82505606D+04 0.82505606D+04 0.12180859D+01  1  2 15  1  5  1        2 0.268221963393D+02
  </mgrwgt>
  </event>
  <event npLO=' -1 ' npNLO=' 0 '>
  5     66 0.12487420E+02 0.87377158E+02 0.75467711E-02 0.10897447E+00
        4 -1    0    0  501    0 0.00000000E+00 0.00000000E+00 0.63805597E+02 0.63805597E+02 0.00000000E+00 0.0000E+00 0.9000E+01
       -4 -1    0    0    0  501 0.00000000E+00 0.00000000E+00 -.29914177E+02 0.29914177E+02 0.00000000E+00 0.0000E+00 0.9000E+01
       23  2    1    2    0    0 0.00000000E+00 0.00000000E+00 0.33891421E+02 0.93719774E+02 0.87377158E+02 0.0000E+00 0.0000E+00
      -13  1    3    3    0    0 0.25869542E+02 0.26907156E+02 0.41297582E+02 0.55666135E+02 0.00000000E+00 0.0000E+00 0.9000E+01
       13  1    3    3    0    0 -.25869542E+02 -.26907156E+02 -.74061614E+01 0.38053640E+02 0.00000000E+00 0.0000E+00 0.9000E+01
#aMCatNLO 1  0  0  2  1 0.37104745D+03 0.00000000D+00  -5  5  0 0.00000000D+00 0.00000000D+00 0.00000000D+00 0.00000000D+00 0.00000000D+00
  <mgrwgt>
 0.1161180535D+03    3    2    0
 0.436885789580136D+02 0.000000000000000D+00 0.000000000000000D+00 0.436885789580136D+02
 0.436885789580136D+02 0.000000000000000D+00 0.000000000000000D+00 -.436885789580136D+02
 0.436885789580136D+02 0.258695422495444D+02 0.269071562090433D+02 0.227038247859643D+02
 0.436885789580136D+02 -.258695422495444D+02 -.269071562090433D+02 -.227038247859643D+02
 0.000000000000000D+00 0.000000000000000D+00 -.000000000000000D+00 0.000000000000000D+00
 0.480208934884112D+03 0.000000000000000D+00 0.000000000000000D+00 0.480208934884112D+03
 0.897568461148601D+02 0.000000000000000D+00 0.000000000000000D+00 -.897568461148601D+02
 0.486184087856495D+02 -.226962473773116D+02 0.365125508274159D+02 0.227038247859643D+02
 0.109323463878548D+03 -.106374289121063D+03 -.109848399387955D+02 -.227038247859643D+02
 0.412023908334775D+03 0.129070536498374D+03 -.255277108886204D+02 0.390452088769252D+03
0.295835673024D-01 0.000000000000D+00 0.000000000000D+00 0.745061693607D-01 0.000000000000D+00  5 4 -4 -13 13 21 0 0.98162458D-02 0.46021811D-02 0.13932283D+04 0.76347677D+04 0.76347677D+04 0.12216744D+01  1  2  2  2  5  2       -4 0.118661867794D+03
-.159402594263D-02 0.000000000000D+00 -.113608687973D-03 0.745061693607D-01 0.000000000000D+00  5 4 -4 -13 13 21 2 0.98162458D-02 0.46021811D-02 0.13932283D+04 0.76347677D+04 0.76347677D+04 0.12216744D+01  1  2  3  2  5  2       -4 -.106995437684D+02
0.136235792279D-02 0.000000000000D+00 0.000000000000D+00 0.745061693607D-01 0.000000000000D+00  5 4 -4 -13 13 21 2 0.98162458D-02 0.46021811D-02 0.13932283D+04 0.76347677D+04 0.76347677D+04 0.12216744D+01  1  2 15  2  5  2       -4 0.815572943796D+01
  </mgrwgt>
  </event>
  <event npLO=' -1 ' npNLO=' 0 '>
  5     66 0.12487420E+02 0.46752602E+02 0.75467711E-02 0.11672557E+00
        2 -1    0    0  501    0 0.00000000E+00 0.00000000E+00 0.99665231E+03 0.99665231E+03 0.00000000E+00 0.0000E+00 0.9000E+01
       -2 -1    0    0    0  501 0.00000000E+00 0.00000000E+00 -.21019643E+01 0.21019643E+01 0.00000000E+00 0.0000E+00 0.9000E+01
       23  2    1    2    0    0 0.00000000E+00 0.00000000E+00 0.99455035E+03 0.99875428E+03 0.91540758E+02 0.0000E+00 0.0000E+00
      -11  1    3    3    0    0 -.31961772E+02 -.18000003E+01 0.14036168E+03 0.14396595E+03 0.00000000E+00 0.0000E+00 0.9000E+01
       11  1    3    3    0    0 0.31961772E+02 0.18000003E+01 0.85418867E+03 0.85478833E+03 0.00000000E+00 0.0000E+00 0.9000E+01
#aMCatNLO 1  0  0  1  2 0.39268554D+02 0.00000000D+00  -5  5  0 0.00000000D+00 0.00000000D+00 0.00000000D+00 0.00000000D+00 0.00000000D+00
  <mgrwgt>
 0.3559817773D+03    7    2    0
 0.457703787695916D+02 0.000000000000000D+00 0.000000000000000D+00 0.457703787695916D+02
 0.457703787695916D+02 0.000000000000000D+00 0.000000000000000D+00 -.457703787695916D+02
 0.457703787695916D+02 -.319617715296531D+02 -.180000032048237D+01 -.327128832762324D+02
 0.457703787695916D+02 0.319617715296531D+02 0.180000032048237D+01 0.327128832762324D+02
 0.000000000000000D+00 -.000000000000000D+00 0.000000000000000D+00 0.000000000000000D+00
 0.944664128524812D+02 0.000000000000000D+00 0.000000000000000D+00 0.944664128524812D+02
 0.557910325815658D+02 0.000000000000000D+00 0.000000000000000D+00 -.557910325815658D+02
 0.483893006084387D+02 -.300916780970971D+02 -.191280576753137D+02 -.327128832762324D+02
 0.496465240889961D+02 0.338568345180717D+02 -.157594218894849D+02 0.327128832762324D+02
 0.522216207366121D+02 -.376515642097457D+01 0.348874795647986D+02 0.386753802709154D+02
0.177467954457D-01 0.000000000000D+00 0.000000000000D+00 0.106988879855D+01 0.000000000000D+00  5 2 -2 -11 11 21 0 0.15333113D+00 0.32337912D-03 0.10247948D+04 0.83797103D+04 0.83797103D+04 0.12173715D+01  1  2  2  1  5  1        2 0.450553790202D+03
-.832713849737D-03 0.000000000000D+00 -.681523673502D-04 0.106988879855D+01 0.000000000000D+00  5 2 -2 -11 11 21 2 0.15333113D+00 0.32337912D-03 0.10247948D+04 0.83797103D+04 0.83797103D+04 0.12173715D+01  1  2  3  1  5  1        2 -.367188337296D+02
0.993664257526D-03 0.000000000000D+00 0.000000000000D+00 0.106988879855D+01 0.000000000000D+00  5 2 -2 -11 11 21 2 0.15333113D+00 0.32337912D-03 0.10247948D+04 0.83797103D+04 0.83797103D+04 0.12173715D+01  1  2 15  1  5  1        2 0.373863113184D+02
0.118618983662D-01 0.000000000000D+00 0.000000000000D+00 0.106988879855D+01 0.000000000000D+00  5 2 -2 -11 11 21 2 0.38574751D+00 0.32337912D-03 0.29209477D+04 0.96110229D+04 0.96110229D+04 0.12111221D+01  1  2 12  1  5  1        2 0.709504477719D+02
-.700249965962D-02 0.000000000000D+00 -.576435315293D-02 0.106988879855D+01 0.000000000000D+00  5 2 -2 -11 11 21 2 0.34118352D+00 0.32337912D-03 0.10247948D+04 0.83797103D+04 0.83797103D+04 0.12173715D+01  1  2  5  1  5  1        2 -.165132703498D+03
0.120584681795D-02 0.000000000000D+00 0.000000000000D+00 0.106988879855D+01 0.000000000000D+00  5 21 -2 -11 11 -2 2 0.38574751D+00 0.32337912D-03 0.29209477D+04 0.96110229D+04 0.96110229D+04 0.12111221D+01  1  2 12  3  5  1        2 0.111313968500D+01
-.243715204910D-03 0.000000000000D+00 -.500162144390D-03 0.106988879855D+01 0.000000000000D+00  5 21 -2 -11 11 -2 2 0.34118352D+00 0.32337912D-03 0.10247948D+04 0.83797103D+04 0.83797103D+04 0.12173715D+01  1  2  5  3  5  1        2 -.217037444955D+01
  </mgrwgt>
  </event>
  <event npLO=' -1 ' npNLO=' 0 '>
  5     66 0.12487420E+02 0.74471555E+02 0.75467711E-02 0.11504852E+00
        2 -1    0    0  501    0 0.00000000E+00 0.00000000E+00 0.24755913E+03 0.24755913E+03 0.00000000E+00 0.0000E+00 0.9000E+01
       -2 -1    0    0    0  501 0.00000000E+00 0.00000000E+00 -.11027997E+02 0.11027997E+02 0.00000000E+00 0.0000E+00 0.9000E+01
       23  2    1    2    0    0 0.00000000E+00 0.00000000E+00 0.23653113E+03 0.25858712E+03 0.10450036E+03 0.0000E+00 0.0000E+00
      -13  1    3    3    0    0 0.31759226E+02 0.83483610E+01 0.17697600E+02 0.37303467E+02 0.00000000E+00 0.0000E+00 0.9000E+01
       13  1    3    3    0    0 -.31759226E+02 -.83483610E+01 0.21883353E+03 0.22128366E+03 0.00000000E+00 0.0000E+00 0.9000E+01
#aMCatNLO 1  0  0  1  2 0.39279548D+02 0.00000000D+00  -5  5  0 0.00000000D+00 0.00000000D+00 0.00000000D+00 0.00000000D+00 0.00000000D+00
  <mgrwgt>
 0.4715290481D+03    6    2    0
 0.522501811473663D+02 0.000000000000000D+00 0.000000000000000D+00 0.522501811473663D+02
 0.522501811473663D+02 0.000000000000000D+00 0.000000000000000D+00 -.522501811473663D+02
 0.522501811473663D+02 0.317592264012983D+02 0.834836098027411D+01 -.406415776916534D+02
 0.522501811473663D+02 -.317592264012983D+02 -.834836098027411D+01 0.406415776916534D+02
 0.000000000000000D+00 0.000000000000000D+00 0.000000000000000D+00 -.000000000000000D+00
 0.676570947591576D+02 0.000000000000000D+00 0.000000000000000D+00 0.676570947591576D+02
 0.680505220206883D+02 0.000000000000000D+00 0.000000000000000D+00 -.680505220206883D+02
 0.461348216747556D+02 0.218310379369983D+02 0.299526773658600D+00 -.406415776916534D+02
 0.619531725104852D+02 -.432836700242781D+02 -.176912875754324D+02 0.406415776916534D+02
 0.276196225946050D+02 0.214526320872798D+02 0.173917608017738D+02 -.393427261530762D+00
0.488650339075D-01 0.000000000000D+00 0.000000000000D+00 0.268089066675D-01 0.000000000000D+00  5 2 -2 -13 13 21 0 0.38086019D-01 0.16966150D-02 0.10783436D+04 0.10920326D+05 0.10920326D+05 0.12053886D+01  1  2  2  1  5  1        2 0.614699682683D+03
-.200270757853D-02 0.000000000000D+00 -.187654596664D-03 0.268089066675D-01 0.000000000000D+00  5 2 -2 -13 13 21 2 0.38086019D-01 0.16966150D-02 0.10783436D+04 0.10920326D+05 0.10920326D+05 0.12053886D+01  1  2  3  1  5  1        2 -.445455087176D+02
0.150715849061D-02 0.000000000000D+00 0.000000000000D+00 0.268089066675D-01 0.000000000000D+00  5 2 -2 -13 13 21 2 0.38086019D-01 0.16966150D-02 0.10783436D+04 0.10920326D+05 0.10920326D+05 0.12053886D+01  1  2 15  1  5  1        2 0.275472238141D+02
0.178508477512D-01 0.000000000000D+00 0.000000000000D+00 0.268089066675D-01 0.000000000000D+00  5 2 -2 -13 13 21 2 0.64229537D-01 0.16966150D-02 0.23140663D+04 0.11683014D+05 0.11683014D+05 0.12023903D+01  1  2 12  1  5  1        2 0.186445489248D+03
-.186156822686D-01 0.000000000000D+00 0.000000000000D+00 0.268089066675D-01 0.000000000000D+00  5 2 -2 -13 13 21 2 0.38086019D-01 0.16966150D-02 0.10783436D+04 0.10920326D+05 0.10920326D+05 0.12053886D+01  1  2  4  1  5  1        2 -.340249793967D+03
0.104279384173D-02 0.000000000000D+00 0.000000000000D+00 0.268089066675D-01 0.000000000000D+00  5 21 -2 -13 13 -2 2 0.64229537D-01 0.16966150D-02 0.23140663D+04 0.11683014D+05 0.11683014D+05 0.12023903D+01  1  2 12  3  5  1        2 0.276319550386D+02
  </mgrwgt>
  </event>
  <event npLO=' -1 ' npNLO=' 0 '>
  5     66 0.12487420E+02 0.90772996E+02 0.75467711E-02 0.10464800E+00
        2 -1    0    0  501    0 0.00000000E+00 0.00000000E+00 0.16384606E+03 0.16384606E+03 0.00000000E+00 0.0000E+00 0.9000E+01
       -2 -1    0    0    0  501 0.00000000E+00 0.00000000E+00 -.12572375E+02 0.12572375E+02 0.00000000E+00 0.0000E+00 0.9000E+01
       23  2    1    2    0    0 0.00000000E+00 0.00000000E+00 0.15127369E+03 0.17641844E+03 0.90772996E+02 0.0000E+00 0.0000E+00
      -11  1    3    3    0    0 -.13266288E+02 -.94832382E+01 -.66820432E+01 0.17623164E+02 0.00000000E+00 0.0000E+00 0.9000E+01
       11  1    3    3    0    0 0.13266288E+02 0.94832382E+01 0.15795573E+03 0.15879528E+03 0.00000000E+00 0.0000E+00 0.9000E+01
#aMCatNLO 1  0  0  1  2 0.45856358D+03 0.00000000D+00  -5  5  0 0.00000000D+00 0.00000000D+00 0.00000000D+00 0.00000000D+00 0.00000000D+00
  <mgrwgt>
 0.4004208635D+03    3    2    0
 0.453864982049371D+02 0.000000000000000D+00 0.000000000000000D+00 0.453864982049371D+02
 0.453864982049371D+02 0.000000000000000D+00 0.000000000000000D+00 -.453864982049371D+02
 0.453864982049371D+02 -.132662882426198D+02 -.948323821511837D+01 -.423557317080676D+02
 0.453864982049371D+02 0.132662882426198D+02 0.948323821511837D+01 0.423557317080676D+02
 0.000000000000000D+00 0.000000000000000D+00 -.000000000000000D+00 -.000000000000000D+00
 0.128228827957836D+03 0.000000000000000D+00 0.000000000000000D+00 0.128228827957836D+03
 0.529157389764367D+03 0.000000000000000D+00 0.000000000000000D+00 -.529157389764367D+03
 0.980538544006827D+02 -.468358373946824D+02 0.750130301337263D+02 -.423557317080676D+02
 0.114646577185071D+03 -.241864793550118D+02 0.103753765561237D+03 0.423557317080676D+02
 0.444685786136450D+03 0.710223167496943D+02 -.178766795694963D+03 -.400928561806531D+03
0.237269972001D-01 0.000000000000D+00 0.000000000000D+00 0.119658117193D+01 0.000000000000D+00  5 2 -2 -11 11 21 0 0.25207087D-01 0.19342116D-02 0.26592621D+03 0.82397369D+04 0.82397369D+04 0.12181464D+01  1  2  2  1  5  1        2 0.380759056785D+03
0.361088943576D-03 0.000000000000D+00 -.911179167103D-04 0.119658117193D+01 0.000000000000D+00  5 2 -2 -11 11 21 2 0.25207087D-01 0.19342116D-02 0.26592621D+03 0.82397369D+04 0.82397369D+04 0.12181464D+01  1  2  3  1  5  1        2 0.114860300727D+01
0.777454796054D-03 0.000000000000D+00 0.000000000000D+00 0.119658117193D+01 0.000000000000D+00  5 2 -2 -11 11 21 2 0.25207087D-01 0.19342116D-02 0.26592621D+03 0.82397369D+04 0.82397369D+04 0.12181464D+01  1  2 15  1  5  1        2 0.185132036583D+02
  </mgrwgt>
  </event>
  <event npLO=' -1 ' npNLO=' 0 '>
  6     66 0.12487420E+02 0.95864117E+02 0.75467711E-02 0.11584175E+00
        4 -1    0    0  501    0 0.00000000E+00 0.00000000E+00 0.47304497E+03 0.47304497E+03 0.00000000E+00 0.0000E+00 0.9000E+01
       -4 -1    0    0    0  502 0.00000000E+00 0.00000000E+00 -.17196064E+02 0.17196064E+02 0.00000000E+00 0.0000E+00 0.9000E+01
       23  2    1    2    0    0 -.12704752E+02 0.35968097E+02 0.43438732E+03 0.44647216E+03 0.95864117E+02 0.0000E+00 0.0000E+00
      -13  1    3    3    0    0 0.35001841E+02 0.34826237E+02 0.14499217E+03 0.15316894E+03 0.00000000E+00 0.0000E+00 0.9000E+01
       13  1    3    3    0    0 -.47706593E+02 0.11418593E+01 0.28939515E+03 0.29330322E+03 0.00000000E+00 0.0000E+00 0.9000E+01
       21  1    1    2  501  502 0.12704752E+02 -.35968097E+02 0.21461581E+02 0.43768872E+02 0.00000000E+00 0.0000E+00 0.9000E+01
#aMCatNLO 2  0  0  2  1 0.40122217D+02 0.00000000D+00  -5  5  0 0.00000000D+00 0.00000000D+00 0.00000000D+00 0.00000000D+00 0.00000000D+00
  <mgrwgt>
 0.8145423521D+00    2    2    0
 0.479320583231369D+02 0.000000000000000D+00 0.000000000000000D+00 0.479320583231369D+02
 0.479320583231369D+02 0.000000000000000D+00 0.000000000000000D+00 -.479320583231369D+02
 0.479320583231369D+02 0.414039490756102D+02 0.167013936688550D+02 -.174430119404534D+02
 0.479320583231369D+02 -.414039490756102D+02 -.167013936688550D+02 0.174430119404534D+02
 0.000000000000000D+00 0.000000000000000D+00 -.000000000000000D+00 -.000000000000000D+00
 0.554076224225961D+02 0.000000000000000D+00 0.000000000000000D+00 0.554076224225961D+02
 0.146812139789014D+03 0.000000000000000D+00 0.000000000000000D+00 -.146812139789014D+03
 0.523665384768220D+02 0.350018410071146D+02 0.348262374166712D+02 -.174430119404534D+02
 0.508082819213868D+02 -.477065928725743D+02 0.114185933405173D+01 0.174430119404534D+02
 0.990449418134017D+02 0.127047518654597D+02 -.359680967507230D+02 -.914045173664183D+02
-.370881157942D-01 0.000000000000D+00 0.000000000000D+00 0.722808427221D-01 0.000000000000D+00  5 4 -4 -13 13 21 2 0.62957233D-01 0.30581525D-02 0.45726190D+04 0.10645044D+05 0.10645044D+05 0.12065282D+01  1  2 13  2  5  2       -4 -.115500675090D+02
0.451200043533D-01 0.000000000000D+00 0.000000000000D+00 0.722808427221D-01 0.649187201606D-03  5 4 -4 -13 13 21 2 0.72776149D-01 0.26455483D-02 0.45726190D+04 0.10645044D+05 0.10645044D+05 0.12065282D+01  1  2  1  2  5  2       -4 0.123646098611D+02
  </mgrwgt>
  </event>
  <event npLO=' -1 ' npNLO=' 0 '>
  5     66 0.12487420E+02 0.87919822E+02 0.75467711E-02 0.11430545E+00
        2 -1    0    0  501    0 0.00000000E+00 0.00000000E+00 0.85085021E+03 0.85085021E+03 0.00000000E+00 0.0000E+00 0.9000E+01
       -2 -1    0    0    0  501 0.00000000E+00 0.00000000E+00 -.22712268E+01 0.22712268E+01 0.00000000E+00 0.0000E+00 0.9000E+01
       23  2    1    2    0    0 0.00000000E+00 0.00000000E+00 0.84857898E+03 0.85312143E+03 0.87919822E+02 0.0000E+00 0.0000E+00
      -13  1    3    3    0    0 0.35036487E+02 0.18373398E+02 0.61026516E+03 0.61154616E+03 0.00000000E+00 0.0000E+00 0.9000E+01
       13  1    3    3    0    0 -.35036487E+02 -.18373398E+02 0.23831382E+03 0.24157527E+03 0.00000000E+00 0.0000E+00 0.9000E+01
#aMCatNLO 1  0  0  1  1 0.95771985D+02 0.00000000D+00  -5  5  0 0.00000000D+00 0.00000000D+00 0.00000000D+00 0.00000000D+00 0.00000000D+00
  <mgrwgt>
 0.4258100990D+03    5    2    0
 0.439599109730222D+02 0.000000000000000D+00 0.000000000000000D+00 0.439599109730222D+02
 0.439599109730222D+02 0.000000000000000D+00 0.000000000000000D+00 -.439599109730222D+02
 0.439599109730222D+02 0.350364872519864D+02 0.183733983207593D+02 0.191660263994432D+02
 0.439599109730222D+02 -.350364872519864D+02 -.183733983207593D+02 -.191660263994432D+02
 0.000000000000000D+00 -.000000000000000D+00 0.000000000000000D+00 0.000000000000000D+00
 0.980603657165909D+02 0.000000000000000D+00 0.000000000000000D+00 0.980603657165909D+02
 0.867431731343928D+02 0.000000000000000D+00 0.000000000000000D+00 -.867431731343928D+02
 0.845524767569891D+02 0.804124023275220D+02 0.177659874398745D+02 0.191660263994432D+02
 0.284165834529376D+02 -.948136589328188D+01 -.187154841773149D+02 -.191660263994432D+02
 0.718344786410569D+02 -.709310364342401D+02 0.949496737440491D+00 0.113171925821981D+02
0.163945821522D-01 0.000000000000D+00 0.000000000000D+00 0.896844677909D-01 0.000000000000D+00  5 2 -2 -13 13 21 0 0.13090003D+00 0.34941950D-03 0.15651372D+04 0.77298951D+04 0.77298951D+04 0.12210993D+01  1  2  2  1  5  1        2 0.454797309781D+03
-.898504496103D-03 0.000000000000D+00 -.629595122570D-04 0.896844677909D-01 0.000000000000D+00  5 2 -2 -13 13 21 2 0.13090003D+00 0.34941950D-03 0.15651372D+04 0.77298951D+04 0.77298951D+04 0.12210993D+01  1  2  3  1  5  1        2 -.413247645733D+02
0.868865565398D-03 0.000000000000D+00 0.000000000000D+00 0.896844677909D-01 0.000000000000D+00  5 2 -2 -13 13 21 2 0.13090003D+00 0.34941950D-03 0.15651372D+04 0.77298951D+04 0.77298951D+04 0.12210993D+01  1  2 15  1  5  1        2 0.359395017742D+02
0.360268585869D-02 0.000000000000D+00 -.573798633911D-02 0.896844677909D-01 0.000000000000D+00  5 2 -2 -13 13 21 2 0.41664190D+00 0.34941950D-03 0.15651372D+04 0.77298951D+04 0.77298951D+04 0.12210993D+01  1  2  5  1  5  1        2 -.233234636709D+02
0.731501274871D-03 0.000000000000D+00 -.764322537256D-03 0.896844677909D-01 0.000000000000D+00  5 21 -2 -13 13 -2 2 0.41664190D+00 0.34941950D-03 0.15651372D+04 0.77298951D+04 0.77298951D+04 0.12210993D+01  1  2  5  3  5  1        2 -.278484302186D+00
  </mgrwgt>
  </event>
  <event npLO=' -1 ' npNLO=' 0 '>
  5     66 0.12487420E+02 0.66665835E+02 0.75467711E-02 0.11787693E+00
        2 -1    0    0  501    0 0.00000000E+00 0.00000000E+00 0.26069158E+04 0.26069158E+04 0.00000000E+00 0.0000E+00 0.9000E+01
       -2 -1    0    0    0  501 0.00000000E+00 0.00000000E+00 -.78691157E+00 0.78691157E+00 0.00000000E+00 0.0000E+00 0.9000E+01
       23  2    1    2    0    0 0.00000000E+00 0.00000000E+00 0.26061289E+04 0.26077027E+04 0.90585037E+02 0.0000E+00 0.0000E+00
      -13  1    3    3    0    0 -.17021213E+02 0.31169169E+02 0.21122774E+04 0.21125760E+04 0.00000000E+00 0.0000E+00 0.9000E+01
       13  1    3    3    0    0 0.17021213E+02 -.31169169E+02 0.49385149E+03 0.49512679E+03 0.00000000E+00 0.0000E+00 0.9000E+01
#aMCatNLO 1  0  0  1  2 0.19329113D+02 0.00000000D+00  -5  5  0 0.00000000D+00 0.00000000D+00 0.00000000D+00 0.00000000D+00 0.00000000D+00
  <mgrwgt>
 0.1125941847D+04    9    2    0
 0.452925183621619D+02 0.000000000000000D+00 0.000000000000000D+00 0.452925183621619D+02
 0.452925183621619D+02 0.000000000000000D+00 0.000000000000000D+00 -.452925183621619D+02
 0.452925183621619D+02 -.170212125596658D+02 0.311691691068170D+02 0.281100238309414D+02
 0.452925183621619D+02 0.170212125596658D+02 -.311691691068170D+02 -.281100238309414D+02
 0.000000000000000D+00 -.000000000000000D+00 0.000000000000000D+00 0.000000000000000D+00
 0.556592915175626D+02 0.000000000000000D+00 0.000000000000000D+00 0.556592915175626D+02
 0.517472789462559D+02 0.000000000000000D+00 0.000000000000000D+00 -.517472789462559D+02
 0.411898070957216D+02 -.105144431260879D+02 0.282112256833149D+02 0.281100238309414D+02
 0.506412435076184D+02 0.242390905026730D+02 -.344503787471928D+02 -.281100238309414D+02
 0.155755198604786D+02 -.137246473765851D+02 0.623915306387793D+01 0.391201257130663D+01
0.359746773144D-01 0.000000000000D+00 0.000000000000D+00 0.631217834757D+00 0.000000000000D+00  5 2 -2 -13 13 21 0 0.40106397D+00 0.12106332D-03 0.12612388D+04 0.82056489D+04 0.82056489D+04 0.12183373D+01  1  2  2  1  5  1        2 0.476693575195D+03
-.185484782203D-02 0.000000000000D+00 -.138152233237D-03 0.631217834757D+00 0.000000000000D+00  5 2 -2 -13 13 21 2 0.40106397D+00 0.12106332D-03 0.12612388D+04 0.82056489D+04 0.82056489D+04 0.12183373D+01  1  2  3  1  5  1        2 -.415713402206D+02
0.188402165611D-02 0.000000000000D+00 0.000000000000D+00 0.631217834757D+00 0.000000000000D+00  5 2 -2 -13 13 21 2 0.40106397D+00 0.12106332D-03 0.12612388D+04 0.82056489D+04 0.82056489D+04 0.12183373D+01  1  2 15  1  5  1        2 0.370564146104D+02
0.206287573703D-01 0.000000000000D+00 0.000000000000D+00 0.631217834757D+00 0.000000000000D+00  5 2 -2 -13 13 21 2 0.56310049D+00 0.12106332D-03 0.19055992D+04 0.84329419D+04 0.84329419D+04 0.12170806D+01  1  2 12  1  5  1        2 0.893303769112D+02
-.214934588197D-01 0.000000000000D+00 0.000000000000D+00 0.631217834757D+00 0.000000000000D+00  5 2 -2 -13 13 21 2 0.40106397D+00 0.12106332D-03 0.12612388D+04 0.82056489D+04 0.82056489D+04 0.12183373D+01  1  2  4  1  5  1        2 -.422750194432D+03
-.457277481082D-01 0.000000000000D+00 -.160095799160D-01 0.631217834757D+00 0.000000000000D+00  5 2 -2 -13 13 21 2 0.51360180D+00 0.12106332D-03 0.12612388D+04 0.82056489D+04 0.82056489D+04 0.12183373D+01  1  2  5  1  5  1        2 -.541045031628D+03
0.486686818829D-01 0.000000000000D+00 0.155320979349D-01 0.631217834757D+00 0.000000000000D+00  5 2 -2 -13 13 21 2 0.40106397D+00 0.12106332D-03 0.12612388D+04 0.82056489D+04 0.82056489D+04 0.12183373D+01  1  2  6  1  5  1        2 0.152936758341D+04
0.871476464979D-03 0.000000000000D+00 0.000000000000D+00 0.631217834757D+00 0.000000000000D+00  5 21 -2 -13 13 -2 2 0.56310049D+00 0.12106332D-03 0.19055992D+04 0.84329419D+04 0.84329419D+04 0.12170806D+01  1  2 12  3  5  1        2 0.231986868634D+00
-.127173043740D-02 0.000000000000D+00 -.537533338476D-03 0.631217834757D+00 0.000000000000D+00  5 21 -2 -13 13 -2 2 0.51360180D+00 0.12106332D-03 0.12612388D+04 0.82056489D+04 0.82056489D+04 0.12183373D+01  1  2  5  3  5  1        2 -.137152394674D+01
  </mgrwgt>
  </event>
  <event npLO=' -1 ' npNLO=' 0 '>
  5     66 0.12487420E+02 0.88642813E+02 0.75467711E-02 0.11251133E+00
        2 -1    0    0  501    0 0.00000000E+00 0.00000000E+00 0.15905547E+03 0.15905547E+03 0.00000000E+00 0.0000E+00 0.9000E+01
       -2 -1    0    0    0  501 0.00000000E+00 0.00000000E+00 -.12350327E+02 0.12350327E+02 0.00000000E+00 0.0000E+00 0.9000E+01
       23  2    1    2    0    0 0.00000000E+00 0.00000000E+00 0.14670515E+03 0.17140580E+03 0.88642813E+02 0.0000E+00 0.0000E+00
      -11  1    3    3    0    0 0.29375017E+02 0.31067947E+02 0.50779272E+02 0.66382554E+02 0.00000000E+00 0.0000E+00 0.9000E+01
       11  1    3    3    0    0 -.29375017E+02 -.31067947E+02 0.95925874E+02 0.10502325E+03 0.00000000E+00 0.0000E+00 0.9000E+01
#aMCatNLO 1  0  0  2  1 0.10410038D+03 0.00000000D+00  -5  5  0 0.00000000D+00 0.00000000D+00 0.00000000D+00 0.00000000D+00 0.00000000D+00
  <mgrwgt>
 0.2492101992D+03    5    2    0
 0.443214065796765D+02 0.000000000000000D+00 0.000000000000000D+00 0.443214065796765D+02
 0.443214065796765D+02 0.000000000000000D+00 0.000000000000000D+00 -.443214065796765D+02
 0.443214065796765D+02 0.293750173806969D+02 0.310679465261603D+02 -.116738225844146D+02
 0.443214065796765D+02 -.293750173806969D+02 -.310679465261603D+02 0.116738225844146D+02
 0.000000000000000D+00 0.000000000000000D+00 -.000000000000000D+00 -.000000000000000D+00
 0.811614250965007D+02 0.000000000000000D+00 0.000000000000000D+00 0.811614250965007D+02
 0.173378699255420D+03 0.000000000000000D+00 0.000000000000000D+00 -.173378699255420D+03
 0.339716131095562D+02 -.328094824647399D+01 0.317337004167012D+02 -.116738225844146D+02
 0.920285562938143D+02 -.862464947938372D+02 -.299085134295900D+02 0.116738225844146D+02
 0.128539954948551D+03 0.895274430403112D+02 -.182518698711116D+01 -.922172741589197D+02
0.165449502757D-01 0.000000000000D+00 0.000000000000D+00 0.116690208073D+00 0.000000000000D+00  5 2 -2 -11 11 21 0 0.24470073D-01 0.19000503D-02 0.18281089D+04 0.78575483D+04 0.78575483D+04 0.12203398D+01  1  2  2  2  5  2       -2 0.280256205885D+03
-.917719626840D-03 0.000000000000D+00 -.635369654441D-04 0.116690208073D+00 0.000000000000D+00  5 2 -2 -11 11 21 2 0.24470073D-01 0.19000503D-02 0.18281089D+04 0.78575483D+04 0.78575483D+04 0.12203398D+01  1  2  3  2  5  2       -2 -.254877353821D+02
0.885141324280D-03 0.000000000000D+00 0.000000000000D+00 0.116690208073D+00 0.000000000000D+00  5 2 -2 -11 11 21 2 0.24470073D-01 0.19000503D-02 0.18281089D+04 0.78575483D+04 0.78575483D+04 0.12203398D+01  1  2 15  2  5  2       -2 0.223287266916D+02
0.100110166157D-01 0.000000000000D+00 -.820278795526D-02 0.116690208073D+00 0.000000000000D+00  5 2 -2 -11 11 21 2 0.24470073D-01 0.13470497D-01 0.18281089D+04 0.78575483D+04 0.78575483D+04 0.12203398D+01  1  2  5  2  5  2       -2 -.280882883444D+01
0.160337597897D-02 0.000000000000D+00 -.196287595216D-02 0.116690208073D+00 0.000000000000D+00  5 2 21 -11 11 2 2 0.24470073D-01 0.13470497D-01 0.18281089D+04 0.78575483D+04 0.78575483D+04 0.12203398D+01  1  2  5  4  5  2       -2 -.250781691108D+02
  </mgrwgt>
  </event>
  <event npLO=' -1 ' npNLO=' 0 '>
  5     66 0.12487420E+02 0.59704070E+02 0.75467711E-02 0.11804853E+00
        4 -1    0    0  501    0 0.00000000E+00 0.00000000E+00 0.10002899E+02 0.10002899E+02 0.00000000E+00 0.0000E+00 0.9000E+01
       -4 -1    0    0    0  501 0.00000000E+00 0.00000000E+00 -.20556439E+03 0.20556439E+03 0.00000000E+00 0.0000E+00 0.9000E+01
       23  2    1    2    0    0 0.00000000E+00 0.00000000E+00 -.19556149E+03 0.21556728E+03 0.90691559E+02 0.0000E+00 0.0000E+00
      -11  1    3    3    0    0 -.42981581E+02 -.56467133E+01 -.12939818E+03 0.13646681E+03 0.00000000E+00 0.0000E+00 0.9000E+01
       11  1    3    3    0    0 0.42981581E+02 0.56467133E+01 -.66163309E+02 0.79100475E+02 0.00000000E+00 0.0000E+00 0.9000E+01
#aMCatNLO 1  0  0  1  2 0.13931021D+02 0.00000000D+00  -5  5  0 0.00000000D+00 0.00000000D+00 0.00000000D+00 0.00000000D+00 0.00000000D+00
  <mgrwgt>
 0.1581686536D+03    6    2    0
 0.453457796242976D+02 0.000000000000000D+00 0.000000000000000D+00 0.453457796242976D+02
 0.453457796242976D+02 0.000000000000000D+00 0.000000000000000D+00 -.453457796242976D+02
 0.453457796242976D+02 -.429815808197515D+02 -.564671330699055D+01 -.133018069749637D+02
 0.453457796242976D+02 0.429815808197515D+02 0.564671330699055D+01 0.133018069749637D+02
 0.000000000000000D+00 -.000000000000000D+00 -.000000000000000D+00 -.000000000000000D+00
 0.473317129265983D+02 0.000000000000000D+00 0.000000000000000D+00 0.473317129265983D+02
 0.518179295883902D+02 0.000000000000000D+00 0.000000000000000D+00 -.518179295883902D+02
 0.429399827861785D+02 -.407011477565055D+02 -.321257282893535D+01 -.133018069749637D+02
 0.480108463463044D+02 0.453929949676706D+02 0.822066335244812D+01 0.133018069749637D+02
 0.819881338250575D+01 -.469184721116507D+01 -.500809052351277D+01 -.448621666179193D+01
0.380214291458D-01 0.000000000000D+00 0.000000000000D+00 0.627279271159D+00 0.000000000000D+00  5 4 -4 -11 11 21 0 0.15389075D-02 0.31625290D-01 0.18793017D+04 0.82249589D+04 0.82249589D+04 0.12182291D+01  1  2  2  1  5  1        4 0.984184702382D+02
-.210710337387D-02 0.000000000000D+00 -.146012299192D-03 0.627279271159D+00 0.000000000000D+00  5 4 -4 -11 11 21 2 0.15389075D-02 0.31625290D-01 0.18793017D+04 0.82249589D+04 0.82249589D+04 0.12182291D+01  1  2  3  1  5  1        4 -.892259628475D+01
0.207104582186D-02 0.000000000000D+00 0.000000000000D+00 0.627279271159D+00 0.000000000000D+00  5 4 -4 -11 11 21 2 0.15389075D-02 0.31625290D-01 0.18793017D+04 0.82249589D+04 0.82249589D+04 0.12182291D+01  1  2 15  1  5  1        4 0.795601873319D+01
0.247725944631D-01 0.000000000000D+00 0.000000000000D+00 0.627279271159D+00 0.000000000000D+00  5 4 -4 -11 11 21 2 0.18355704D-02 0.31625290D-01 0.22006251D+04 0.82720533D+04 0.82720533D+04 0.12179662D+01  1  2 12  1  5  1        4 0.733282660775D+02
-.154730769351D-01 0.000000000000D+00 0.000000000000D+00 0.627279271159D+00 0.000000000000D+00  5 4 -4 -11 11 21 2 0.15389075D-02 0.31625290D-01 0.18793017D+04 0.82249589D+04 0.82249589D+04 0.12182291D+01  1  2  4  1  5  1        4 -.594405438335D+02
0.642746644230D-03 0.000000000000D+00 0.000000000000D+00 0.627279271159D+00 0.000000000000D+00  5 21 -4 -11 11 -4 2 0.18355704D-02 0.31625290D-01 0.22006251D+04 0.82720533D+04 0.82720533D+04 0.12179662D+01  1  2 12  3  5  1        4 0.468290386924D+02
  </mgrwgt>
  </event>
  <event npLO=' -1 ' npNLO=' 0 '>
  5     66 0.12487420E+02 0.74759112E+02 0.75467711E-02 0.11817621E+00
        4 -1    0    0  501    0 0.00000000E+00 0.00000000E+00 0.17526213E+02 0.17526213E+02 0.00000000E+00 0.0000E+00 0.9000E+01
       -4 -1    0    0    0  501 0.00000000E+00 0.00000000E+00 -.11632089E+03 0.11632089E+03 0.00000000E+00 0.0000E+00 0.9000E+01
       23  2    1    2    0    0 0.00000000E+00 0.00000000E+00 -.98794673E+02 0.13384710E+03 0.90303148E+02 0.0000E+00 0.0000E+00
      -13  1    3    3    0    0 -.30399346E+02 -.33060339E+02 -.56279333E+02 0.72003261E+02 0.00000000E+00 0.0000E+00 0.9000E+01
       13  1    3    3    0    0 0.30399346E+02 0.33060339E+02 -.42515340E+02 0.61843839E+02 0.00000000E+00 0.0000E+00 0.9000E+01
#aMCatNLO 1  0  0  2  1 0.45091701D+01 0.00000000D+00  -5  5  0 0.00000000D+00 0.00000000D+00 0.00000000D+00 0.00000000D+00 0.00000000D+00
  <mgrwgt>
 0.2617781260D+01    1    2    0
 0.451515739781595D+02 0.000000000000000D+00 0.000000000000000D+00 0.451515739781595D+02
 0.451515739781595D+02 0.000000000000000D+00 0.000000000000000D+00 -.451515739781595D+02
 0.451515739781595D+02 -.303993459483727D+02 -.330603386160448D+02 -.464310340277130D+01
 0.451515739781595D+02 0.303993459483727D+02 0.330603386160448D+02 0.464310340277130D+01
 0.000000000000000D+00 0.000000000000000D+00 0.000000000000000D+00 -.000000000000000D+00
 0.453100816463618D+02 0.000000000000000D+00 0.000000000000000D+00 0.453100816463618D+02
 0.498483671823003D+02 0.000000000000000D+00 0.000000000000000D+00 -.498483671823003D+02
 0.459100438367181D+02 -.306395969369064D+02 -.338731282202348D+02 -.464310340277130D+01
 0.444087512376022D+02 0.301630558715785D+02 0.322609491144083D+02 0.464310340277130D+01
 0.483965375434186D+01 0.476541065327963D+00 0.161217910582646D+01 -.453828553593843D+01
0.540205583815D-03 0.000000000000D+00 0.000000000000D+00 0.420472068949D+00 0.000000000000D+00  5 4 -4 -13 13 21 2 0.26963405D-02 0.17895521D-01 0.20171062D+04 0.81546585D+04 0.81546585D+04 0.12186246D+01  1  2 14  2  5  2       -4 0.261778125978D+01
  </mgrwgt>
  </event>
  <event npLO=' -1 ' npNLO=' 0 '>
  5     66 -.12487420E+02 0.55702795E+02 0.75467711E-02 0.11801162E+00
        2 -1    0    0  501    0 0.00000000E+00 0.00000000E+00 0.93090304E+02 0.93090304E+02 0.00000000E+00 0.0000E+00 0.9000E+01
       -2 -1    0    0    0  501 0.00000000E+00 0.00000000E+00 -.22303556E+02 0.22303556E+02 0.00000000E+00 0.0000E+00 0.9000E+01
       23  2    1    2    0    0 0.00000000E+00 0.00000000E+00 0.70786748E+02 0.11539386E+03 0.91131659E+02 0.0000E+00 0.0000E+00
      -13  1    3    3    0    0 0.86979535E+01 -.31618564E+02 0.75452309E+02 0.82270523E+02 0.00000000E+00 0.0000E+00 0.9000E+01
       13  1    3    3    0    0 -.86979535E+01 0.31618564E+02 -.46655613E+01 0.33123337E+02 0.00000000E+00 0.0000E+00 0.9000E+01
#aMCatNLO 1  0  0  2  1 0.13622831D+01 0.00000000D+00  -5  5  0 0.00000000D+00 0.00000000D+00 0.00000000D+00 0.00000000D+00 0.00000000D+00
  <mgrwgt>
 -.2364666919D+03   11    2    0
 0.455658296654202D+02 0.000000000000000D+00 0.000000000000000D+00 0.455658296654202D+02
 0.455658296654202D+02 0.000000000000000D+00 0.000000000000000D+00 -.455658296654202D+02
 0.455658296654202D+02 0.869795352564824D+01 -.316185644757987D+02 0.316363211839416D+02
 0.455658296654202D+02 -.869795352564824D+01 0.316185644757987D+02 -.316363211839416D+02
 0.000000000000000D+00 -.000000000000000D+00 -.000000000000000D+00 -.000000000000000D+00
 0.459135869660161D+02 0.000000000000000D+00 0.000000000000000D+00 0.459135869660161D+02
 0.465694745178505D+02 0.000000000000000D+00 0.000000000000000D+00 -.465694745178505D+02
 0.452441406422162D+02 0.893717486202927D+01 -.310854041293442D+02 0.316363211839416D+02
 0.458950665534771D+02 -.845701745061188D+01 0.321555465158755D+02 -.316363211839416D+02
 0.134385428817314D+01 -.480157411417391D+00 -.107014238653133D+01 -.655887551834399D+00
0.200636522366D-01 0.000000000000D+00 0.000000000000D+00 0.820640964777D+00 0.000000000000D+00  5 2 -2 -13 13 21 0 0.14321585D-01 0.34313164D-02 0.10753880D+04 0.83049793D+04 0.83049793D+04 0.12177834D+01  1  2  2  2  5  2       -2 0.272261260685D+03
-.968007664977D-03 0.000000000000D+00 -.770497074695D-04 0.820640964777D+00 0.000000000000D+00  5 2 -2 -13 13 21 2 0.14321585D-01 0.34313164D-02 0.10753880D+04 0.83049793D+04 0.83049793D+04 0.12177834D+01  1  2  3  2  5  2       -2 -.226498617004D+02
0.100769640380D-02 0.000000000000D+00 0.000000000000D+00 0.820640964777D+00 0.000000000000D+00  5 2 -2 -13 13 21 2 0.14321585D-01 0.34313164D-02 0.10753880D+04 0.83049793D+04 0.83049793D+04 0.12177834D+01  1  2 15  2  5  2       -2 0.202789588431D+02
0.223747955143D-05 0.000000000000D+00 0.000000000000D+00 0.820640964777D+00 0.000000000000D+00  5 2 -2 -13 13 21 2 0.14321585D-01 0.35336600D-02 0.11144456D+04 0.83063551D+04 0.83063551D+04 0.12177758D+01  1  2 12  2  5  2       -2 0.431692360671D-01
-.176709921873D+00 0.000000000000D+00 0.000000000000D+00 0.820640964777D+00 0.000000000000D+00  5 2 -2 -13 13 21 2 0.14321585D-01 0.34313164D-02 0.10753880D+04 0.83049793D+04 0.83049793D+04 0.12177834D+01  1  2  4  2  5  2       -2 -.355612386758D+04
-.625032778055D+00 0.000000000000D+00 -.817849379895D-01 0.820640964777D+00 0.000000000000D+00  5 2 -2 -13 13 21 2 0.14321585D-01 0.35333059D-02 0.10753880D+04 0.83049793D+04 0.83049793D+04 0.12177834D+01  1  2  5  2  5  2       -2 -.152869459622D+05
0.627194271074D+00 0.000000000000D+00 0.817498687666D-01 0.820640964777D+00 0.000000000000D+00  5 2 -2 -13 13 21 2 0.14321585D-01 0.34313164D-02 0.10753880D+04 0.83049793D+04 0.83049793D+04 0.12177834D+01  1  2  6  2  5  2       -2 0.159846581552D+05
0.176737541620D+00 0.000000000000D+00 0.000000000000D+00 0.820640964777D+00 0.471866579789D+01  5 2 -2 -13 13 21 2 0.14430887D-01 0.35068954D-02 0.11144456D+04 0.83063551D+04 0.83063551D+04 0.12177758D+01  1  2 11  2  5  2       -2 0.341657298479D+04
0.828164845451D-07 0.000000000000D+00 0.000000000000D+00 0.820640964777D+00 0.000000000000D+00  5 2 21 -13 13 2 2 0.14321585D-01 0.35336600D-02 0.11144456D+04 0.83063551D+04 0.83063551D+04 0.12177758D+01  1  2 12  4  5  2       -2 0.268246524140D-01
-.326130443016D-02 0.000000000000D+00 -.430056657861D-03 0.820640964777D+00 0.000000000000D+00  5 2 21 -13 13 2 2 0.14321585D-01 0.35333059D-02 0.10753880D+04 0.83049793D+04 0.83049793D+04 0.12177834D+01  1  2  5  4  5  2       -2 -.134130972620D+04
0.851843277129D-03 0.000000000000D+00 0.000000000000D+00 0.820640964777D+00 0.188563586871D-01  5 2 21 -13 13 2 2 0.14430887D-01 0.35068954D-02 0.11144456D+04 0.83063551D+04 0.83063551D+04 0.12177758D+01  1  2 11  4  5  2       -2 0.276721372368D+03
  </mgrwgt>
  </event>
  <event npLO=' -1 ' npNLO=' 0 '>
  5     66 0.12487420E+02 0.45515477E+02 0.75467711E-02 0.11738116E+00
        2 -1    0    0  501    0 0.00000000E+00 0.00000000E+00 0.61809617E+02 0.61809617E+02 0.00000000E+00 0.0000E+00 0.9000E+01
       -2 -1    0    0    0  501 0.00000000E+00 0.00000000E+00 -.33898302E+02 0.33898302E+02 0.00000000E+00 0.0000E+00 0.9000E+01
       23  2    1    2    0    0 0.00000000E+00 0.00000000E+00 0.27911316E+02 0.95707919E+02 0.91547606E+02 0.0000E+00 0.0000E+00
      -11  1    3    3    0    0 0.10714493E+02 0.38103950E+00 -.32567146E+02 0.34286507E+02 0.00000000E+00 0.0000E+00 0.9000E+01
       11  1    3    3    0    0 -.10714493E+02 -.38103950E+00 0.60478462E+02 0.61421412E+02 0.00000000E+00 0.0000E+00 0.9000E+01
#aMCatNLO 1  0  0  2  1 0.80700068D+02 0.00000000D+00  -5  5  0 0.00000000D+00 0.00000000D+00 0.00000000D+00 0.00000000D+00 0.00000000D+00
  <mgrwgt>
 0.3563833252D+03    5    2    0
 0.457738031221454D+02 0.000000000000000D+00 0.000000000000000D+00 0.457738031221454D+02
 0.457738031221454D+02 0.000000000000000D+00 0.000000000000000D+00 -.457738031221454D+02
 0.457738031221454D+02 0.107144931326843D+02 0.381039500474094D+00 -.445005112113745D+02
 0.457738031221454D+02 -.107144931326843D+02 -.381039500474094D+00 0.445005112113745D+02
 0.000000000000000D+00 0.000000000000000D+00 -.000000000000000D+00 0.000000000000000D+00
 0.102855563337926D+03 0.000000000000000D+00 0.000000000000000D+00 0.102855563337926D+03
 0.496342359892086D+02 0.000000000000000D+00 0.000000000000000D+00 -.496342359892086D+02
 0.455818888431801D+02 0.352989319637703D+01 0.921699226757495D+01 -.445005112113745D+02
 0.488558819133490D+02 -.181565738005953D+02 0.877157496011827D+01 0.445005112113745D+02
 0.580520285706053D+02 0.146266806042183D+02 -.179885672276932D+02 0.532213273487173D+02
0.253758303359D-01 0.000000000000D+00 0.000000000000D+00 0.138538595295D+01 0.000000000000D+00  5 2 -2 -11 11 21 0 0.95091719D-02 0.52151233D-02 0.11494555D+03 0.83809642D+04 0.83809642D+04 0.12173646D+01  1  2  2  2  5  2       -2 0.308693187641D+03
0.220144343265D-02 0.000000000000D+00 -.974498700995D-04 0.138538595295D+01 0.000000000000D+00  5 2 -2 -11 11 21 2 0.95091719D-02 0.52151233D-02 0.11494555D+03 0.83809642D+04 0.83809642D+04 0.12173646D+01  1  2  3  2  5  2       -2 0.321521806559D+02
0.805510850479D-03 0.000000000000D+00 0.000000000000D+00 0.138538595295D+01 0.000000000000D+00  5 2 -2 -11 11 21 2 0.95091719D-02 0.52151233D-02 0.11494555D+03 0.83809642D+04 0.83809642D+04 0.12173646D+01  1  2 15  2  5  2       -2 0.145217687962D+02
0.905396224813D-04 0.000000000000D+00 0.000000000000D+00 0.138538595295D+01 0.000000000000D+00  5 2 -2 -11 11 21 2 0.95091719D-02 0.12706903D-01 0.70806101D+03 0.89184925D+04 0.89184925D+04 0.12145185D+01  1  2 12  2  5  2       -2 0.430331709409D+00
0.884097729509D-05 0.000000000000D+00 0.000000000000D+00 0.138538595295D+01 0.000000000000D+00  5 2 21 -11 11 2 2 0.95091719D-02 0.12706903D-01 0.70806101D+03 0.89184925D+04 0.89184925D+04 0.12145185D+01  1  2 12  4  5  2       -2 0.585856442655D+00
  </mgrwgt>
  </event>
  <event npLO=' -1 ' npNLO=' 0 '>
  5     66 0.12487420E+02 0.59587488E+02 0.75467711E-02 0.11780070E+00
        2 -1    0    0  501    0 0.00000000E+00 0.00000000E+00 0.36430297E+03 0.36430297E+03 0.00000000E+00 0.0000E+00 0.9000E+01
       -2 -1    0    0    0  501 0.00000000E+00 0.00000000E+00 -.58252811E+01 0.58252811E+01 0.00000000E+00 0.0000E+00 0.9000E+01
       23  2    1    2    0    0 0.00000000E+00 0.00000000E+00 0.35847769E+03 0.37012825E+03 0.92133972E+02 0.0000E+00 0.0000E+00
      -13  1    3    3    0    0 0.22190486E+02 -.21235287E+02 0.31716757E+03 0.31865126E+03 0.00000000E+00 0.0000E+00 0.9000E+01
       13  1    3    3    0    0 -.22190486E+02 0.21235287E+02 0.41310116E+02 0.51476993E+02 0.00000000E+00 0.0000E+00 0.9000E+01
#aMCatNLO 1  0  0  1  2 0.53224619D+01 0.00000000D+00  -5  5  0 0.00000000D+00 0.00000000D+00 0.00000000D+00 0.00000000D+00 0.00000000D+00
  <mgrwgt>
 0.5527500809D+03   11    2    0
 0.460669858325645D+02 0.000000000000000D+00 0.000000000000000D+00 0.460669858325645D+02
 0.460669858325645D+02 0.000000000000000D+00 0.000000000000000D+00 -.460669858325645D+02
 0.460669858325645D+02 0.221904864922499D+02 -.212352868450534D+02 0.343338329573510D+02
 0.460669858325645D+02 -.221904864922499D+02 0.212352868450534D+02 -.343338329573510D+02
 0.000000000000000D+00 -.000000000000000D+00 0.000000000000000D+00 0.000000000000000D+00
 0.486340057637882D+02 0.000000000000000D+00 0.000000000000000D+00 0.486340057637882D+02
 0.477884725679435D+02 0.000000000000000D+00 0.000000000000000D+00 -.477884725679435D+02
 0.472796478517904D+02 0.242255731385984D+02 -.216719777951262D+02 0.343338329573510D+02
 0.449459848209692D+02 -.202062769507701D+02 0.208095131555807D+02 -.343338329573510D+02
 0.419684565897207D+01 -.401929618782828D+01 0.862464639545544D+00 0.845533195844711D+00
0.153834952498D-01 0.000000000000D+00 0.000000000000D+00 0.519609468864D+00 0.000000000000D+00  5 2 -2 -13 13 21 0 0.56046610D-01 0.89619709D-03 0.94335510D+03 0.84886687D+04 0.84886687D+04 0.12167782D+01  1  2  2  1  5  1        2 0.305460168760D+03
-.683881713079D-03 0.000000000000D+00 -.590766723265D-04 0.519609468864D+00 0.000000000000D+00  5 2 -2 -13 13 21 2 0.56046610D-01 0.89619709D-03 0.94335510D+03 0.84886687D+04 0.84886687D+04 0.12167782D+01  1  2  3  1  5  1        2 -.239206974180D+02
0.679339830799D-03 0.000000000000D+00 0.000000000000D+00 0.519609468864D+00 0.000000000000D+00  5 2 -2 -13 13 21 2 0.56046610D-01 0.89619709D-03 0.94335510D+03 0.84886687D+04 0.84886687D+04 0.12167782D+01  1  2 15  1  5  1        2 0.199714462336D+02
0.179630072411D-01 0.000000000000D+00 0.000000000000D+00 0.519609468864D+00 0.000000000000D+00  5 2 -2 -13 13 21 2 0.61380857D-01 0.89619709D-03 0.10765332D+04 0.85055673D+04 0.85055673D+04 0.12166870D+01  1  2 12  1  5  1        2 0.479391113943D+03
-.367125545506D-01 0.000000000000D+00 0.000000000000D+00 0.519609468864D+00 0.000000000000D+00  5 2 -2 -13 13 21 2 0.56046610D-01 0.89619709D-03 0.94335510D+03 0.84886687D+04 0.84886687D+04 0.12167782D+01  1  2  4  1  5  1        2 -.107928723750D+04
-.129545958831D+00 0.000000000000D+00 -.279337921046D-01 0.519609468864D+00 0.000000000000D+00  5 2 -2 -13 13 21 2 0.61080547D-01 0.89619709D-03 0.94335510D+03 0.84886687D+04 0.84886687D+04 0.12167782D+01  1  2  5  1  5  1        2 -.512182300048D+04
0.131564606402D+00 0.000000000000D+00 0.278307869975D-01 0.519609468864D+00 0.000000000000D+00  5 2 -2 -13 13 21 2 0.56046610D-01 0.89619709D-03 0.94335510D+03 0.84886687D+04 0.84886687D+04 0.12167782D+01  1  2  6  1  5  1        2 0.566535187551D+04
0.174716558126D-01 0.000000000000D+00 0.000000000000D+00 0.519609468864D+00 0.243163179111D+00  5 2 -2 -13 13 21 2 0.59169731D-01 0.92968727D-03 0.10765332D+04 0.85055673D+04 0.85055673D+04 0.12166870D+01  1  2 11  1  5  1        2 0.460986721622D+03
0.274670956435D-03 0.000000000000D+00 0.000000000000D+00 0.519609468864D+00 0.000000000000D+00  5 21 -2 -13 13 -2 2 0.61380857D-01 0.89619709D-03 0.10765332D+04 0.85055673D+04 0.85055673D+04 0.12166870D+01  1  2 12  3  5  1        2 0.198003303873D+02
-.177543156606D-02 0.000000000000D+00 -.397802471873D-03 0.519609468864D+00 0.000000000000D+00  5 21 -2 -13 13 -2 2 0.61080547D-01 0.89619709D-03 0.94335510D+03 0.84886687D+04 0.84886687D+04 0.12167782D+01  1  2  5  3  5  1        2 -.193055029514D+03
0.267779884593D-03 0.000000000000D+00 0.000000000000D+00 0.519609468864D+00 0.239471359649D-02  5 21 -2 -13 13 -2 2 0.59169731D-01 0.92968727D-03 0.10765332D+04 0.85055673D+04 0.85055673D+04 0.12166870D+01  1  2 11  3  5  1        2 0.198743893676D+02
  </mgrwgt>
  </event>
  <event npLO=' -1 ' npNLO=' 0 '>
  5     66 0.12487420E+02 0.68897979E+02 0.75467711E-02 0.11798368E+00
        2 -1    0    0  501    0 0.00000000E+00 0.00000000E+00 0.48537697E+03 0.48537697E+03 0.00000000E+00 0.0000E+00 0.9000E+01
       -2 -1    0    0    0  501 0.00000000E+00 0.00000000E+00 -.42583653E+01 0.42583653E+01 0.00000000E+00 0.0000E+00 0.9000E+01
       23  2    1    2    0    0 0.00000000E+00 0.00000000E+00 0.48111860E+03 0.48963533E+03 0.90926618E+02 0.0000E+00 0.0000E+00
      -11  1    3    3    0    0 0.11910795E+02 0.40932110E+02 0.15548258E+03 0.16122077E+03 0.00000000E+00 0.0000E+00 0.9000E+01
       11  1    3    3    0    0 -.11910795E+02 -.40932110E+02 0.32563602E+03 0.32841456E+03 0.00000000E+00 0.0000E+00 0.9000E+01
#aMCatNLO 1  0  0  1  2 0.10338525D+02 0.00000000D+00  -5  5  0 0.00000000D+00 0.00000000D+00 0.00000000D+00 0.00000000D+00 0.00000000D+00
  <mgrwgt>
 0.6894100047D+03    9    2    0
 0.454633088237960D+02 0.000000000000000D+00 0.000000000000000D+00 0.454633088237960D+02
 0.454633088237960D+02 0.000000000000000D+00 0.000000000000000D+00 -.454633088237960D+02
 0.454633088237960D+02 0.119107953904992D+02 0.409321104360589D+02 -.157989790057391D+02
 0.454633088237960D+02 -.119107953904992D+02 -.409321104360589D+02 0.157989790057391D+02
 0.000000000000000D+00 -.000000000000000D+00 -.000000000000000D+00 0.000000000000000D+00
 0.507305582503147D+02 0.000000000000000D+00 0.000000000000000D+00 0.507305582503147D+02
 0.488236111009363D+02 0.000000000000000D+00 0.000000000000000D+00 -.488236111009363D+02
 0.477326359121572D+02 0.158386638026507D+02 0.421655489996914D+02 -.157989790057391D+02
 0.435495580082828D+02 -.815922842162131D+01 -.397540344701869D+02 0.157989790057391D+02
 0.827197543081099D+01 -.767943538102944D+01 -.241151452950453D+01 0.190694714937844D+01
0.170813570768D-01 0.000000000000D+00 0.000000000000D+00 0.742092283775D+00 0.000000000000D+00  5 2 -2 -11 11 21 0 0.74673380D-01 0.65513312D-03 0.18173047D+04 0.82676498D+04 0.82676498D+04 0.12179907D+01  1  2  2  1  5  1        2 0.382401518518D+03
-.944186369022D-03 0.000000000000D+00 -.655969087994D-04 0.742092283775D+00 0.000000000000D+00  5 2 -2 -11 11 21 2 0.74673380D-01 0.65513312D-03 0.18173047D+04 0.82676498D+04 0.82676498D+04 0.12179907D+01  1  2  3  1  5  1        2 -.346581080514D+02
0.928459222821D-03 0.000000000000D+00 0.000000000000D+00 0.742092283775D+00 0.000000000000D+00  5 2 -2 -11 11 21 2 0.74673380D-01 0.65513312D-03 0.18173047D+04 0.82676498D+04 0.82676498D+04 0.12179907D+01  1  2 15  1  5  1        2 0.308352880702D+02
0.208556635000D-01 0.000000000000D+00 0.000000000000D+00 0.742092283775D+00 0.000000000000D+00  5 2 -2 -11 11 21 2 0.89483563D-01 0.65513312D-03 0.21937067D+04 0.83324389D+04 0.83324389D+04 0.12176315D+01  1  2 12  1  5  1        2 0.569052707494D+03
-.222161367625D-01 0.000000000000D+00 0.000000000000D+00 0.742092283775D+00 0.000000000000D+00  5 2 -2 -11 11 21 2 0.74673380D-01 0.65513312D-03 0.18173047D+04 0.82676498D+04 0.82676498D+04 0.12179907D+01  1  2  4  1  5  1        2 -.737825593241D+03
-.655890437640D-01 0.000000000000D+00 -.163907730330D-01 0.742092283775D+00 0.000000000000D+00  5 2 -2 -11 11 21 2 0.88314846D-01 0.65513312D-03 0.18173047D+04 0.82676498D+04 0.82676498D+04 0.12179907D+01  1  2  5  1  5  1        2 -.250295433515D+04
0.676132531308D-01 0.000000000000D+00 0.161627349151D-01 0.742092283775D+00 0.000000000000D+00  5 2 -2 -11 11 21 2 0.74673380D-01 0.65513312D-03 0.18173047D+04 0.82676498D+04 0.82676498D+04 0.12179907D+01  1  2  6  1  5  1        2 0.305874679089D+04
0.552269171667D-03 0.000000000000D+00 0.000000000000D+00 0.742092283775D+00 0.000000000000D+00  5 21 -2 -11 11 -2 2 0.89483563D-01 0.65513312D-03 0.21937067D+04 0.83324389D+04 0.83324389D+04 0.12176315D+01  1  2 12  3  5  1        2 0.257319377847D+02
-.149776180609D-02 0.000000000000D+00 -.409008668496D-03 0.742092283775D+00 0.000000000000D+00  5 21 -2 -11 11 -2 2 0.88314846D-01 0.65513312D-03 0.18173047D+04 0.82676498D+04 0.82676498D+04 0.12179907D+01  1  2  5  3  5  1        2 -.101920201644D+03
  </mgrwgt>
  </event>
  <event npLO=' -1 ' npNLO=' 0 '>
  5     66 0.12487420E+02 0.35695716E+02 0.75467711E-02 0.11831544E+00
        2 -1    0    0  501    0 0.00000000E+00 0.00000000E+00 0.11795806E+02 0.11795806E+02 0.00000000E+00 0.0000E+00 0.9000E+01
       -2 -1    0    0    0  501 0.00000000E+00 0.00000000E+00 -.16967965E+03 0.16967965E+03 0.00000000E+00 0.0000E+00 0.9000E+01
       23  2    1    2    0    0 0.00000000E+00 0.00000000E+00 -.15788384E+03 0.18147545E+03 0.89476436E+02 0.0000E+00 0.0000E+00
      -11  1    3    3    0    0 0.30312326E+02 -.78054379E+01 -.14377262E+03 0.14714051E+03 0.00000000E+00 0.0000E+00 0.9000E+01
       11  1    3    3    0    0 -.30312326E+02 0.78054379E+01 -.14111219E+02 0.34334945E+02 0.00000000E+00 0.0000E+00 0.9000E+01
#aMCatNLO 1  0  0  2  1 0.88137054D+01 0.00000000D+00  -5  5  0 0.00000000D+00 0.00000000D+00 0.00000000D+00 0.00000000D+00 0.00000000D+00
  <mgrwgt>
 0.3207637496D+03    8    2    0
 0.447382178371665D+02 0.000000000000000D+00 0.000000000000000D+00 0.447382178371665D+02
 0.447382178371665D+02 0.000000000000000D+00 0.000000000000000D+00 -.447382178371665D+02
 0.447382178371665D+02 0.303123260235912D+02 -.780543790750222D+01 -.319647644345678D+02
 0.447382178371665D+02 -.303123260235912D+02 0.780543790750222D+01 0.319647644345678D+02
 0.000000000000000D+00 0.000000000000000D+00 -.000000000000000D+00 0.000000000000000D+00
 0.485963350965865D+02 0.000000000000000D+00 0.000000000000000D+00 0.485963350965865D+02
 0.463045066070798D+02 0.000000000000000D+00 0.000000000000000D+00 -.463045066070798D+02
 0.439039989180621D+02 0.295790722661644D+02 -.555818671086285D+01 -.319647644345678D+02
 0.456997891722866D+02 -.310604346661919D+02 0.100982158513896D+02 0.319647644345678D+02
 0.529705361331765D+01 0.148136240002749D+01 -.454002914052676D+01 0.229182848950664D+01
0.278367012621D-01 0.000000000000D+00 0.000000000000D+00 0.318347355132D+00 0.000000000000D+00  5 2 -2 -11 11 21 0 0.18147393D-02 0.26104561D-01 0.97976197D+03 0.80060325D+04 0.80060325D+04 0.12194737D+01  1  2  2  2  5  2       -2 0.243615896288D+03
-.130660854956D-02 0.000000000000D+00 -.106900262418D-03 0.318347355132D+00 0.000000000000D+00  5 2 -2 -11 11 21 2 0.18147393D-02 0.26104561D-01 0.97976197D+03 0.80060325D+04 0.80060325D+04 0.12194737D+01  1  2  3  2  5  2       -2 -.199276220658D+02
0.130336953891D-02 0.000000000000D+00 0.000000000000D+00 0.318347355132D+00 0.000000000000D+00  5 2 -2 -11 11 21 2 0.18147393D-02 0.26104561D-01 0.97976197D+03 0.80060325D+04 0.80060325D+04 0.12194737D+01  1  2 15  2  5  2       -2 0.169629080921D+02
0.211668843500D-01 0.000000000000D+00 0.000000000000D+00 0.318347355132D+00 0.000000000000D+00  5 2 -2 -11 11 21 2 0.18147393D-02 0.29348494D-01 0.11401800D+04 0.80288388D+04 0.80288388D+04 0.12193423D+01  1  2 12  2  5  2       -2 0.226085867500D+03
-.151373950972D-01 0.000000000000D+00 0.000000000000D+00 0.318347355132D+00 0.000000000000D+00  5 2 -2 -11 11 21 2 0.18147393D-02 0.26104561D-01 0.97976197D+03 0.80060325D+04 0.80060325D+04 0.12194737D+01  1  2  4  2  5  2       -2 -.197008012019D+03
0.628768398830D-05 0.000000000000D+00 0.000000000000D+00 0.318347355132D+00 0.110949234123D+00  5 2 -2 -11 11 21 2 0.19712381D-02 0.27018484D-01 0.11401800D+04 0.80288388D+04 0.80288388D+04 0.12193423D+01  1  2 11  2  5  2       -2 0.691631240650D-01
0.393511665154D-03 0.000000000000D+00 0.000000000000D+00 0.318347355132D+00 0.000000000000D+00  5 2 21 -11 11 2 2 0.18147393D-02 0.29348494D-01 0.11401800D+04 0.80288388D+04 0.80288388D+04 0.12193423D+01  1  2 12  4  5  2       -2 0.509401445973D+02
0.187913757046D-06 0.000000000000D+00 0.000000000000D+00 0.318347355132D+00 0.700674880224D-03  5 2 21 -11 11 2 2 0.19712381D-02 0.27018484D-01 0.11401800D+04 0.80288388D+04 0.80288388D+04 0.12193423D+01  1  2 11  4  5  2       -2 0.254041158144D-01
  </mgrwgt>
  </event>
</LesHouchesEvents>
