<LesHouchesEvents version="3.0">
  <!--
  <scalesfunctionalform>
    muR  FxFx merging scale
    muF1 FxFx merging scale
    muF2 FxFx merging scale
    QES  H_T/2 := sum_i mT(i)/2, i=final state
  </scalesfunctionalform>
PYTHIA8   
  -->
  <header>
       99
  </header>
  <init>
   2212   2212 0.65000000D+04 0.65000000D+04 -1 -1 306000 306000 -4   1
 0.10736587D+04 0.44192953D+01 0.13120323D+02     66
  </init>
  <event npLO=' -1 ' npNLO=' 0 '>
  5     66 0.13120323E+02 0.47763244E+02 0.75467711E-02 0.11755923E+00
        1 -1    0    0  501    0 0.00000000E+00 0.00000000E+00 0.17763285E+02 0.17763285E+02 0.00000000E+00 0.0000E+00 0.9000E+01
       -1 -1    0    0    0  501 0.00000000E+00 0.00000000E+00 -.11899493E+03 0.11899493E+03 0.00000000E+00 0.0000E+00 0.9000E+01
       23  2    1    2    0    0 0.00000000E+00 0.00000000E+00 -.10123165E+03 0.13675822E+03 0.91950875E+02 0.0000E+00 0.0000E+00
      -11  1    3    3    0    0 -.37582889E+02 0.11962512E+02 -.15477657E+02 0.42369011E+02 0.00000000E+00 0.0000E+00 0.9000E+01
       11  1    3    3    0    0 0.37582889E+02 -.11962512E+02 -.85753991E+02 0.94389206E+02 0.00000000E+00 0.0000E+00 0.9000E+01
#aMCatNLO 1  0  0  1  2 0.48974626D+02 0.00000000D+00  -5  5  0 0.00000000D+00 0.00000000D+00 0.00000000D+00 0.00000000D+00 0.00000000D+00
  <mgrwgt>
 0.2612032112D+03    6    2    0
 0.459754375826862D+02 0.000000000000000D+00 0.000000000000000D+00 0.459754375826862D+02
 0.459754375826862D+02 0.000000000000000D+00 0.000000000000000D+00 -.459754375826862D+02
 0.459754375826862D+02 -.375828892073537D+02 0.119625118700981D+02 0.236255287666755D+02
 0.459754375826862D+02 0.375828892073537D+02 -.119625118700981D+02 -.236255287666755D+02
 0.000000000000000D+00 -.000000000000000D+00 -.000000000000000D+00 -.000000000000000D+00
 0.492596827553198D+02 0.000000000000000D+00 0.000000000000000D+00 0.492596827553198D+02
 0.751297731989747D+02 0.000000000000000D+00 0.000000000000000D+00 -.751297731989747D+02
 0.402056071714769D+02 -.298046204924610D+02 0.130387819915234D+02 0.236255287666755D+02
 0.532847873249282D+02 0.465416191024773D+02 -.107229026889986D+02 -.236255287666755D+02
 0.308990614578895D+02 -.167369986100162D+02 -.231587930252477D+01 -.258700904436549D+02
0.272275152273D-01 0.000000000000D+00 0.000000000000D+00 0.634687502674D+00 0.000000000000D+00  5 1 -1 -11 11 21 0 0.27328130D-02 0.18306913D-01 0.15555753D+04 0.84549634D+04 0.84549634D+04 0.12169608D+01  1  2  2  1  5  1        1 0.254251870695D+03
-.146941417307D-02 0.000000000000D+00 -.104560827642D-03 0.634687502674D+00 0.000000000000D+00  5 1 -1 -11 11 21 2 0.27328130D-02 0.18306913D-01 0.15555753D+04 0.84549634D+04 0.84549634D+04 0.12169608D+01  1  2  3  1  5  1        1 -.227693999526D+02
0.124912393022D-02 0.000000000000D+00 0.000000000000D+00 0.634687502674D+00 0.000000000000D+00  5 1 -1 -11 11 21 2 0.27328130D-02 0.18306913D-01 0.15555753D+04 0.84549634D+04 0.84549634D+04 0.12169608D+01  1  2 15  1  5  1        1 0.172748737667D+02
0.346408041684D-02 0.000000000000D+00 0.000000000000D+00 0.634687502674D+00 0.000000000000D+00  5 1 -1 -11 11 21 2 0.47847788D-02 0.18306913D-01 0.23614384D+04 0.87404539D+04 0.87404539D+04 0.12154394D+01  1  2 12  1  5  1        1 0.224121522900D+02
-.216142501841D-02 0.000000000000D+00 0.000000000000D+00 0.634687502674D+00 0.000000000000D+00  5 1 -1 -11 11 21 2 0.27328130D-02 0.18306913D-01 0.15555753D+04 0.84549634D+04 0.84549634D+04 0.12169608D+01  1  2  4  1  5  1        1 -.298916251990D+02
0.214284666272D-03 0.000000000000D+00 0.000000000000D+00 0.634687502674D+00 0.000000000000D+00  5 21 -1 -11 11 -1 2 0.47847788D-02 0.18306913D-01 0.23614384D+04 0.87404539D+04 0.87404539D+04 0.12154394D+01  1  2 12  3  5  1        1 0.199253395841D+02
  </mgrwgt>
  </event>
  <event npLO=' -1 ' npNLO=' 0 '>
  5     66 0.13120323E+02 0.66586202E+02 0.75467711E-02 0.11870868E+00
        3 -1    0    0  501    0 0.00000000E+00 0.00000000E+00 0.30826634E+01 0.30826634E+01 0.00000000E+00 0.0000E+00 0.9000E+01
       -3 -1    0    0    0  501 0.00000000E+00 0.00000000E+00 -.61925532E+03 0.61925532E+03 0.00000000E+00 0.0000E+00 0.9000E+01
       23  2    1    2    0    0 0.00000000E+00 0.00000000E+00 -.61617266E+03 0.62233798E+03 0.87383196E+02 0.0000E+00 0.0000E+00
      -11  1    3    3    0    0 0.28627717E+02 -.15276709E+02 -.51646022E+03 0.51747859E+03 0.00000000E+00 0.0000E+00 0.9000E+01
       11  1    3    3    0    0 -.28627717E+02 0.15276709E+02 -.99712432E+02 0.10485940E+03 0.00000000E+00 0.0000E+00 0.9000E+01
#aMCatNLO 1  0  0  1  2 0.45343092D+02 0.00000000D+00  -5  5  0 0.00000000D+00 0.00000000D+00 0.00000000D+00 0.00000000D+00 0.00000000D+00
  <mgrwgt>
 0.1450589900D+03    6    2    0
 0.436915979880287D+02 0.000000000000000D+00 0.000000000000000D+00 0.436915979880287D+02
 0.436915979880287D+02 0.000000000000000D+00 0.000000000000000D+00 -.436915979880287D+02
 0.436915979880287D+02 0.286277172084348D+02 -.152767085399061D+02 -.292580197273869D+02
 0.436915979880287D+02 -.286277172084348D+02 0.152767085399061D+02 0.292580197273869D+02
 0.000000000000000D+00 0.000000000000000D+00 -.000000000000000D+00 -.000000000000000D+00
 0.442662397387696D+02 0.000000000000000D+00 0.000000000000000D+00 0.442662397387696D+02
 0.724943297377734D+02 0.000000000000000D+00 0.000000000000000D+00 -.724943297377734D+02
 0.412178137341818D+02 0.255840580207505D+02 -.137234261701813D+02 -.292580197273869D+02
 0.464488898039404D+02 -.318588893280575D+02 0.169256851097088D+02 0.292580197273869D+02
 0.290938659384208D+02 0.627483130730703D+01 -.320225893952744D+01 -.282280899990038D+02
0.533713295875D-01 0.000000000000D+00 0.000000000000D+00 0.106546979613D+00 0.000000000000D+00  5 3 -3 -11 11 21 0 0.47425591D-03 0.95270049D-01 0.10529240D+04 0.76358229D+04 0.76358229D+04 0.12216680D+01  1  2  2  1  5  1        3 0.128055635219D+03
-.264601598462D-02 0.000000000000D+00 -.204959958610D-03 0.106546979613D+00 0.000000000000D+00  5 3 -3 -11 11 21 2 0.47425591D-03 0.95270049D-01 0.10529240D+04 0.76358229D+04 0.76358229D+04 0.12216680D+01  1  2  3  1  5  1        3 -.109293835904D+02
0.254067974545D-02 0.000000000000D+00 0.000000000000D+00 0.106546979613D+00 0.000000000000D+00  5 3 -3 -11 11 21 2 0.47425591D-03 0.95270049D-01 0.10529240D+04 0.76358229D+04 0.76358229D+04 0.12216680D+01  1  2 15  1  5  1        3 0.909802195461D+01
0.623723416836D-02 0.000000000000D+00 0.000000000000D+00 0.106546979613D+00 0.000000000000D+00  5 3 -3 -11 11 21 2 0.79724824D-03 0.95270049D-01 0.13015105D+04 0.76854509D+04 0.76854509D+04 0.12213670D+01  1  2 12  1  5  1        3 0.109255201248D+02
-.150184629085D-02 0.000000000000D+00 0.000000000000D+00 0.106546979613D+00 0.000000000000D+00  5 3 -3 -11 11 21 2 0.47425591D-03 0.95270049D-01 0.10529240D+04 0.76358229D+04 0.76358229D+04 0.12216680D+01  1  2  4  1  5  1        3 -.537802159089D+01
0.362556274060D-03 0.000000000000D+00 0.000000000000D+00 0.106546979613D+00 0.000000000000D+00  5 21 -3 -11 11 -3 2 0.79724824D-03 0.95270049D-01 0.13015105D+04 0.76854509D+04 0.76854509D+04 0.12213670D+01  1  2 12  3  5  1        3 0.132872178391D+02
  </mgrwgt>
  </event>
  <event npLO=' -1 ' npNLO=' 0 '>
  5     66 0.13120323E+02 0.51317611E+02 0.75467711E-02 0.11790678E+00
        1 -1    0    0  501    0 0.00000000E+00 0.00000000E+00 0.42272329E+03 0.42272329E+03 0.00000000E+00 0.0000E+00 0.9000E+01
       -1 -1    0    0    0  501 0.00000000E+00 0.00000000E+00 -.49703902E+01 0.49703902E+01 0.00000000E+00 0.0000E+00 0.9000E+01
       23  2    1    2    0    0 0.00000000E+00 0.00000000E+00 0.41775290E+03 0.42769368E+03 0.91675508E+02 0.0000E+00 0.0000E+00
      -11  1    3    3    0    0 -.11949637E+02 -.91372992E+01 0.68729988E+01 0.16538506E+02 0.00000000E+00 0.0000E+00 0.9000E+01
       11  1    3    3    0    0 0.11949637E+02 0.91372992E+01 0.41087990E+03 0.41115517E+03 0.00000000E+00 0.0000E+00 0.9000E+01
#aMCatNLO 1  0  0  1  2 0.24253889D+02 0.00000000D+00  -5  5  0 0.00000000D+00 0.00000000D+00 0.00000000D+00 0.00000000D+00 0.00000000D+00
  <mgrwgt>
 0.3799324173D+03    6    2    0
 0.458377537506407D+02 0.000000000000000D+00 0.000000000000000D+00 0.458377537506407D+02
 0.458377537506407D+02 0.000000000000000D+00 0.000000000000000D+00 -.458377537506407D+02
 0.458377537506407D+02 -.119496374853348D+02 -.913729920423619D+01 -.432991408243365D+02
 0.458377537506407D+02 0.119496374853348D+02 0.913729920423619D+01 0.432991408243365D+02
 0.000000000000000D+00 -.000000000000000D+00 -.000000000000000D+00 -.000000000000000D+00
 0.458438265677140D+02 0.000000000000000D+00 0.000000000000000D+00 0.458438265677140D+02
 0.596704850243372D+02 0.000000000000000D+00 0.000000000000000D+00 -.596704850243372D+02
 0.457499338997021D+02 -.117302008248829D+02 -.898015836771856D+01 -.432991408243365D+02
 0.459271658717725D+02 0.121694987791962D+02 0.929474412508070D+01 0.432991408243365D+02
 0.138372118205767D+02 -.439297954313303D+00 -.314585757362140D+00 -.138266584566232D+02
0.188132285081D-01 0.000000000000D+00 0.000000000000D+00 0.168276234997D+01 0.000000000000D+00  5 1 -1 -11 11 21 0 0.65034352D-01 0.76467541D-03 0.22628407D+03 0.84043987D+04 0.84043987D+04 0.12172363D+01  1  2  2  1  5  1        1 0.266616761404D+03
0.532462301783D-03 0.000000000000D+00 -.722477511079D-04 0.168276234997D+01 0.000000000000D+00  5 1 -1 -11 11 21 2 0.65034352D-01 0.76467541D-03 0.22628407D+03 0.84043987D+04 0.84043987D+04 0.12172363D+01  1  2  3  1  5  1        1 0.569685082322D+01
0.538003328266D-03 0.000000000000D+00 0.000000000000D+00 0.168276234997D+01 0.000000000000D+00  5 1 -1 -11 11 21 2 0.65034352D-01 0.76467541D-03 0.22628407D+03 0.84043987D+04 0.84043987D+04 0.12172363D+01  1  2 15  1  5  1        1 0.112968893676D+02
0.607834652923D-02 0.000000000000D+00 0.000000000000D+00 0.168276234997D+01 0.000000000000D+00  5 1 -1 -11 11 21 2 0.84671371D-01 0.76467541D-03 0.23449304D+03 0.84046906D+04 0.84046906D+04 0.12172347D+01  1  2 12  1  5  1        1 0.900035552586D+02
-.136778639864D-03 0.000000000000D+00 0.000000000000D+00 0.168276234997D+01 0.000000000000D+00  5 1 -1 -11 11 21 2 0.65034352D-01 0.76467541D-03 0.22628407D+03 0.84043987D+04 0.84043987D+04 0.12172363D+01  1  2  4  1  5  1        1 -.287205130751D+01
0.214032263932D-03 0.000000000000D+00 0.000000000000D+00 0.168276234997D+01 0.000000000000D+00  5 21 -1 -11 11 -1 2 0.84671371D-01 0.76467541D-03 0.23449304D+03 0.84046906D+04 0.84046906D+04 0.12172347D+01  1  2 12  3  5  1        1 0.919041170763D+01
  </mgrwgt>
  </event>
  <event npLO=' -1 ' npNLO=' 0 '>
  5     66 0.13120323E+02 0.47460919E+02 0.75467711E-02 0.11762790E+00
        3 -1    0    0  501    0 0.00000000E+00 0.00000000E+00 0.99391565E+03 0.99391565E+03 0.00000000E+00 0.0000E+00 0.9000E+01
       -3 -1    0    0    0  501 0.00000000E+00 0.00000000E+00 -.21693593E+01 0.21693593E+01 0.00000000E+00 0.0000E+00 0.9000E+01
       23  2    1    2    0    0 0.00000000E+00 0.00000000E+00 0.99174630E+03 0.99608501E+03 0.92868943E+02 0.0000E+00 0.0000E+00
      -13  1    3    3    0    0 -.24285985E+02 -.32074899E+01 0.91896971E+03 0.91929616E+03 0.00000000E+00 0.0000E+00 0.9000E+01
       13  1    3    3    0    0 0.24285985E+02 0.32074899E+01 0.72776582E+02 0.76788853E+02 0.00000000E+00 0.0000E+00 0.9000E+01
#aMCatNLO 1  0  0  1  2 0.23903085D+02 0.00000000D+00  -5  5  0 0.00000000D+00 0.00000000D+00 0.00000000D+00 0.00000000D+00 0.00000000D+00
  <mgrwgt>
 0.4707789808D+02    6    2    0
 0.464344713426112D+02 0.000000000000000D+00 0.000000000000000D+00 0.464344713426112D+02
 0.464344713426112D+02 0.000000000000000D+00 0.000000000000000D+00 -.464344713426112D+02
 0.464344713426112D+02 -.242859854596535D+02 -.320748986503266D+01 0.394469650022279D+02
 0.464344713426112D+02 0.242859854596535D+02 0.320748986503266D+01 -.394469650022279D+02
 0.000000000000000D+00 0.000000000000000D+00 -.000000000000000D+00 -.000000000000000D+00
 0.475082325640506D+02 0.000000000000000D+00 0.000000000000000D+00 0.475082325640506D+02
 0.593453369393706D+02 0.000000000000000D+00 0.000000000000000D+00 -.593453369393706D+02
 0.469303880469116D+02 -.254242088358164D+02 0.887660943529438D-01 0.394469650022279D+02
 0.461980347263873D+02 0.231566902998933D+02 0.647789001514550D+01 -.394469650022279D+02
 0.137251467301224D+02 0.226751853592314D+01 -.656665610949845D+01 -.118371043753200D+02
0.259070966614D-01 0.000000000000D+00 0.000000000000D+00 0.396206760702D+00 0.000000000000D+00  5 3 -3 -13 13 21 0 0.15291010D+00 0.33374758D-03 0.60009708D+03 0.86246405D+04 0.86246405D+04 0.12160498D+01  1  2  2  1  5  1        3 0.406352787874D+02
-.723627802104D-03 0.000000000000D+00 -.994900726749D-04 0.396206760702D+00 0.000000000000D+00  5 3 -3 -13 13 21 2 0.15291010D+00 0.33374758D-03 0.60009708D+03 0.86246405D+04 0.86246405D+04 0.12160498D+01  1  2  3  1  5  1        3 -.229347773005D+01
0.915368062019D-03 0.000000000000D+00 0.000000000000D+00 0.396206760702D+00 0.000000000000D+00  5 3 -3 -13 13 21 2 0.15291010D+00 0.33374758D-03 0.60009708D+03 0.86246405D+04 0.86246405D+04 0.12160498D+01  1  2 15  1  5  1        3 0.212316116663D+01
0.903943313576D-02 0.000000000000D+00 0.000000000000D+00 0.396206760702D+00 0.000000000000D+00  5 3 -3 -13 13 21 2 0.19994504D+00 0.33374758D-03 0.79572474D+03 0.86729031D+04 0.86729031D+04 0.12157943D+01  1  2 12  1  5  1        3 0.961646848448D+01
-.292985166473D-02 0.000000000000D+00 0.000000000000D+00 0.396206760702D+00 0.000000000000D+00  5 3 -3 -13 13 21 2 0.15291010D+00 0.33374758D-03 0.60009708D+03 0.86246405D+04 0.86246405D+04 0.12160498D+01  1  2  4  1  5  1        3 -.679567874022D+01
0.322110636254D-03 0.000000000000D+00 0.000000000000D+00 0.396206760702D+00 0.000000000000D+00  5 21 -3 -13 13 -3 2 0.19994504D+00 0.33374758D-03 0.79572474D+03 0.86729031D+04 0.86729031D+04 0.12157943D+01  1  2 12  3  5  1        3 0.379214611587D+01
  </mgrwgt>
  </event>
  <event npLO=' -1 ' npNLO=' 0 '>
  5     66 0.13120323E+02 0.45568164E+02 0.75467711E-02 0.11723810E+00
        1 -1    0    0  501    0 0.00000000E+00 0.00000000E+00 0.47558375E+03 0.47558375E+03 0.00000000E+00 0.0000E+00 0.9000E+01
       -1 -1    0    0    0  501 0.00000000E+00 0.00000000E+00 -.45469869E+01 0.45469869E+01 0.00000000E+00 0.0000E+00 0.9000E+01
       23  2    1    2    0    0 0.00000000E+00 0.00000000E+00 0.47103676E+03 0.48013074E+03 0.93004797E+02 0.0000E+00 0.0000E+00
      -11  1    3    3    0    0 -.14366446E+02 -.15515072E+02 0.21706464E+02 0.30303181E+02 0.00000000E+00 0.0000E+00 0.9000E+01
       11  1    3    3    0    0 0.14366446E+02 0.15515072E+02 0.44933030E+03 0.44982755E+03 0.00000000E+00 0.0000E+00 0.9000E+01
#aMCatNLO 1  0  0  1  2 0.21550900D+02 0.00000000D+00  -5  5  0 0.00000000D+00 0.00000000D+00 0.00000000D+00 0.00000000D+00 0.00000000D+00
  <mgrwgt>
 0.1594989038D+04    8    2    0
 0.465023987043408D+02 0.000000000000000D+00 0.000000000000000D+00 0.465023987043408D+02
 0.465023987043408D+02 0.000000000000000D+00 0.000000000000000D+00 -.465023987043408D+02
 0.465023987043408D+02 -.143664458298521D+02 -.155150716999177D+02 -.414169152596111D+02
 0.465023987043408D+02 0.143664458298521D+02 0.155150716999177D+02 0.414169152596111D+02
 0.000000000000000D+00 -.000000000000000D+00 -.000000000000000D+00 0.000000000000000D+00
 0.860401426188175D+02 0.000000000000000D+00 0.000000000000000D+00 0.860401426188175D+02
 0.503011244867393D+02 0.000000000000000D+00 0.000000000000000D+00 -.503011244867393D+02
 0.439113238629696D+02 -.133947952161375D+02 -.578125893681737D+01 -.414169152596111D+02
 0.512966663188804D+02 0.154174646227106D+02 0.260439799265822D+02 0.414169152596111D+02
 0.411332769237069D+02 -.202266940657311D+01 -.202627209897648D+02 0.357390181320782D+02
0.322030006847D-01 0.000000000000D+00 0.000000000000D+00 0.619226852268D+00 0.000000000000D+00  5 1 -1 -11 11 21 0 0.73166731D-01 0.69953645D-03 0.44711222D+03 0.86498923D+04 0.86498923D+04 0.12159159D+01  1  2  2  1  5  1        1 0.442607149682D+03
-.438019370507D-03 0.000000000000D+00 -.123668001874D-03 0.619226852268D+00 0.000000000000D+00  5 1 -1 -11 11 21 2 0.73166731D-01 0.69953645D-03 0.44711222D+03 0.86498923D+04 0.86498923D+04 0.12159159D+01  1  2  3  1  5  1        1 -.163453069373D+02
0.111091675453D-02 0.000000000000D+00 0.000000000000D+00 0.619226852268D+00 0.000000000000D+00  5 1 -1 -11 11 21 2 0.73166731D-01 0.69953645D-03 0.44711222D+03 0.86498923D+04 0.86498923D+04 0.12159159D+01  1  2 15  1  5  1        1 0.225741125061D+02
0.534361321742D-01 0.000000000000D+00 0.000000000000D+00 0.619226852268D+00 0.000000000000D+00  5 1 -1 -11 11 21 2 0.14643394D+00 0.69953645D-03 0.10633423D+04 0.90645614D+04 0.90645614D+04 0.12137781D+01  1  2 12  1  5  1        1 0.399369777279D+03
-.347550260798D-01 0.000000000000D+00 -.114853808121D-01 0.619226852268D+00 0.000000000000D+00  5 1 -1 -11 11 21 2 0.14081953D+00 0.69953645D-03 0.44711222D+03 0.86498923D+04 0.86498923D+04 0.12159159D+01  1  2  5  1  5  1        1 -.548269006616D+03
0.362998244087D-01 0.000000000000D+00 0.939800473266D-02 0.619226852268D+00 0.000000000000D+00  5 1 -1 -11 11 21 2 0.73166731D-01 0.69953645D-03 0.44711222D+03 0.86498923D+04 0.86498923D+04 0.12159159D+01  1  2  6  1  5  1        1 0.130336849848D+04
0.401156252784D-02 0.000000000000D+00 0.000000000000D+00 0.619226852268D+00 0.000000000000D+00  5 21 -1 -11 11 -1 2 0.14643394D+00 0.69953645D-03 0.10633423D+04 0.90645614D+04 0.90645614D+04 0.12137781D+01  1  2 12  3  5  1        1 0.465655267212D+02
-.180384459340D-02 0.000000000000D+00 -.815914079963D-03 0.619226852268D+00 0.000000000000D+00  5 21 -1 -11 11 -1 2 0.14081953D+00 0.69953645D-03 0.44711222D+03 0.86498923D+04 0.86498923D+04 0.12159159D+01  1  2  5  3  5  1        1 -.548817135459D+02
  </mgrwgt>
  </event>
  <event npLO=' -1 ' npNLO=' 0 '>
  5     66 -.13120323E+02 0.50850911E+02 0.75467711E-02 0.11850777E+00
        3 -1    0    0  501    0 0.00000000E+00 0.00000000E+00 0.55540116E+02 0.55540116E+02 0.00000000E+00 0.0000E+00 0.9000E+01
       -3 -1    0    0    0  501 0.00000000E+00 0.00000000E+00 -.35374019E+02 0.35374019E+02 0.00000000E+00 0.0000E+00 0.9000E+01
       23  2    1    2    0    0 0.00000000E+00 0.00000000E+00 0.20166097E+02 0.90914135E+02 0.88649357E+02 0.0000E+00 0.0000E+00
      -11  1    3    3    0    0 -.36394838E+01 0.10067696E+02 0.54194386E+02 0.55241613E+02 0.00000000E+00 0.0000E+00 0.9000E+01
       11  1    3    3    0    0 0.36394838E+01 -.10067696E+02 -.34028290E+02 0.35672522E+02 0.00000000E+00 0.0000E+00 0.9000E+01
#aMCatNLO 1  0  0  2  1 0.68282711D+02 0.00000000D+00  -5  5  0 0.00000000D+00 0.00000000D+00 0.00000000D+00 0.00000000D+00 0.00000000D+00
  <mgrwgt>
 -.2029415798D+02    1    2    0
 0.443246787035226D+02 0.000000000000000D+00 0.000000000000000D+00 0.443246787035226D+02
 0.443246787035226D+02 0.000000000000000D+00 0.000000000000000D+00 -.443246787035226D+02
 0.443246787035226D+02 -.363948382147906D+01 0.100676959967151D+02 0.430124725748408D+02
 0.443246787035226D+02 0.363948382147906D+01 -.100676959967151D+02 -.430124725748408D+02
 0.000000000000000D+00 -.000000000000000D+00 0.000000000000000D+00 0.000000000000000D+00
 0.587980029716959D+02 0.000000000000000D+00 0.000000000000000D+00 0.587980029716959D+02
 0.447178345325826D+02 0.000000000000000D+00 0.000000000000000D+00 -.447178345325826D+02
 0.440099429946509D+02 -.163076826380226D+01 0.917294283535920D+01 0.430124725748408D+02
 0.447493545324590D+02 0.566501348251611D+01 -.109699387561276D+02 -.430124725748408D+02
 0.147565399771686D+02 -.403424521871384D+01 0.179699592076837D+01 0.140801684391133D+02
-.177459753385D-02 0.000000000000D+00 0.000000000000D+00 0.237467903079D+00 0.000000000000D+00  5 3 -3 -11 11 21 2 0.85446333D-02 0.54421568D-02 0.11460435D+03 0.78587086D+04 0.78587086D+04 0.12203330D+01  1  2 14  2  5  2       -3 -.202941579759D+02
  </mgrwgt>
  </event>
  <event npLO=' -1 ' npNLO=' 0 '>
  5     66 0.13120323E+02 0.49903517E+02 0.75467711E-02 0.11806464E+00
        5 -1    0    0  501    0 0.00000000E+00 0.00000000E+00 0.21954514E+03 0.21954514E+03 0.00000000E+00 0.0000E+00 0.9000E+01
       -5 -1    0    0    0  501 0.00000000E+00 0.00000000E+00 -.93756473E+01 0.93756473E+01 0.00000000E+00 0.0000E+00 0.9000E+01
       23  2    1    2    0    0 0.00000000E+00 0.00000000E+00 0.21016949E+03 0.22892079E+03 0.90738697E+02 0.0000E+00 0.0000E+00
      -11  1    3    3    0    0 -.65969059E+01 -.40806467E+02 0.57907255E+02 0.71147291E+02 0.00000000E+00 0.0000E+00 0.9000E+01
       11  1    3    3    0    0 0.65969059E+01 0.40806467E+02 0.15226224E+03 0.15777349E+03 0.00000000E+00 0.0000E+00 0.9000E+01
#aMCatNLO 1  0  0  1  2 0.93792061D+01 0.00000000D+00  -5  5  0 0.00000000D+00 0.00000000D+00 0.00000000D+00 0.00000000D+00 0.00000000D+00
  <mgrwgt>
 0.4398897216D+02    8    2    0
 0.453693483937684D+02 0.000000000000000D+00 0.000000000000000D+00 0.453693483937684D+02
 0.453693483937684D+02 0.000000000000000D+00 0.000000000000000D+00 -.453693483937684D+02
 0.453693483937684D+02 -.659690594676303D+01 -.408064668702887D+02 -.187000231863152D+02
 0.453693483937684D+02 0.659690594676303D+01 0.408064668702887D+02 0.187000231863152D+02
 0.000000000000000D+00 0.000000000000000D+00 -.000000000000000D+00 -.000000000000000D+00
 0.468663204577738D+02 0.000000000000000D+00 0.000000000000000D+00 0.468663204577738D+02
 0.495587892976982D+02 0.000000000000000D+00 0.000000000000000D+00 -.495587892976982D+02
 0.456384514153956D+02 -.902693911899889D+01 -.406410106981678D+02 -.187000231863152D+02
 0.452303250995667D+02 0.417777030735409D+01 0.409711810508650D+02 0.187000231863152D+02
 0.555633324050965D+01 0.484916881164480D+01 -.330170352697184D+00 -.269246883992436D+01
0.195056876465D-01 0.000000000000D+00 0.000000000000D+00 0.950662304586D+00 0.000000000000D+00  5 5 -5 -11 11 21 0 0.33776175D-01 0.14424073D-02 0.17086869D+04 0.82335111D+04 0.82335111D+04 0.12181812D+01  1  2  2  1  5  1        5 0.226941474412D+02
-.107223007987D-02 0.000000000000D+00 -.749069765281D-04 0.950662304586D+00 0.000000000000D+00  5 5 -5 -11 11 21 2 0.33776175D-01 0.14424073D-02 0.17086869D+04 0.82335111D+04 0.82335111D+04 0.12181812D+01  1  2  3  1  5  1        5 -.205461656180D+01
0.105162173334D-02 0.000000000000D+00 0.000000000000D+00 0.950662304586D+00 0.000000000000D+00  5 5 -5 -11 11 21 2 0.33776175D-01 0.14424073D-02 0.17086869D+04 0.82335111D+04 0.82335111D+04 0.12181812D+01  1  2 15  1  5  1        5 0.181566594504D+01
0.178492301941D-01 0.000000000000D+00 0.000000000000D+00 0.950662304586D+00 0.000000000000D+00  5 5 -5 -11 11 21 2 0.38112455D-01 0.14424073D-02 0.19217472D+04 0.82571345D+04 0.82571345D+04 0.12180493D+01  1  2 12  1  5  1        5 0.240044189897D+02
-.120076888384D-01 0.000000000000D+00 0.000000000000D+00 0.950662304586D+00 0.000000000000D+00  5 5 -5 -11 11 21 2 0.33776175D-01 0.14424073D-02 0.17086869D+04 0.82335111D+04 0.82335111D+04 0.12181812D+01  1  2  4  1  5  1        5 -.207317431841D+02
0.287963496444D-06 0.000000000000D+00 0.000000000000D+00 0.950662304586D+00 0.319599857515D+00  5 5 -5 -11 11 21 2 0.34890628D-01 0.15756003D-02 0.19217472D+04 0.82571345D+04 0.82571345D+04 0.12180493D+01  1  2 11  1  5  1        5 0.407533561568D-03
0.340529045915D-03 0.000000000000D+00 0.000000000000D+00 0.950662304586D+00 0.000000000000D+00  5 21 -5 -11 11 -5 2 0.38112455D-01 0.14424073D-02 0.19217472D+04 0.82571345D+04 0.82571345D+04 0.12180493D+01  1  2 12  3  5  1        5 0.182601550797D+02
0.963057274487D-08 0.000000000000D+00 0.000000000000D+00 0.950662304586D+00 0.194501208486D-02  5 21 -5 -11 11 -5 2 0.34890628D-01 0.15756003D-02 0.19217472D+04 0.82571345D+04 0.82571345D+04 0.12180493D+01  1  2 11  3  5  1        5 0.536912330973D-03
  </mgrwgt>
  </event>
  <event npLO=' -1 ' npNLO=' 0 '>
  5     66 0.13120323E+02 0.91361221E+02 0.75467711E-02 0.11623644E+00
        3 -1    0    0  501    0 0.00000000E+00 0.00000000E+00 0.16629108E+02 0.16629108E+02 0.00000000E+00 0.0000E+00 0.9000E+01
       -3 -1    0    0    0  501 0.00000000E+00 0.00000000E+00 -.12548588E+03 0.12548588E+03 0.00000000E+00 0.0000E+00 0.9000E+01
       23  2    1    2    0    0 0.00000000E+00 0.00000000E+00 -.10885677E+03 0.14211499E+03 0.91361221E+02 0.0000E+00 0.0000E+00
      -13  1    3    3    0    0 -.29787726E+00 -.35769158E+02 -.10233939E+02 0.37205576E+02 0.00000000E+00 0.0000E+00 0.9000E+01
       13  1    3    3    0    0 0.29787726E+00 0.35769158E+02 -.98622831E+02 0.10490941E+03 0.00000000E+00 0.0000E+00 0.9000E+01
#aMCatNLO 1  0  0  2  1 0.11557480D+03 0.00000000D+00  -5  5  0 0.00000000D+00 0.00000000D+00 0.00000000D+00 0.00000000D+00 0.00000000D+00
  <mgrwgt>
 0.2017517928D+03    3    2    0
 0.456806102875100D+02 0.000000000000000D+00 0.000000000000000D+00 0.456806102875100D+02
 0.456806102875100D+02 0.000000000000000D+00 0.000000000000000D+00 -.456806102875100D+02
 0.456806102875100D+02 -.297877258551132D+00 -.357691576825756D+02 0.284112087750107D+02
 0.456806102875100D+02 0.297877258551132D+00 0.357691576825756D+02 -.284112087750107D+02
 0.000000000000000D+00 -.000000000000000D+00 -.000000000000000D+00 0.000000000000000D+00
 0.133361143584031D+03 0.000000000000000D+00 0.000000000000000D+00 0.133361143584031D+03
 0.559086310345675D+02 0.000000000000000D+00 0.000000000000000D+00 -.559086310345675D+02
 0.417984329224615D+02 0.164249675502089D+02 -.258869204752295D+02 0.284112087750107D+02
 0.590391904799728D+02 0.203165344406552D+02 0.475990299984668D+02 -.284112087750107D+02
 0.884321512161645D+02 -.367415019908641D+02 -.217121095232373D+02 0.774525125494639D+02
0.334409216276D-01 0.000000000000D+00 0.000000000000D+00 0.919898167065D+00 0.000000000000D+00  5 3 -3 -13 13 21 0 0.25583242D-02 0.19305520D-01 0.12795214D+04 0.83468726D+04 0.83468726D+04 0.12175520D+01  1  2  2  2  5  2       -3 0.206547897069D+03
-.172273559044D-02 0.000000000000D+00 -.128421944247D-03 0.919898167065D+00 0.000000000000D+00  5 3 -3 -13 13 21 2 0.25583242D-02 0.19305520D-01 0.12795214D+04 0.83468726D+04 0.83468726D+04 0.12175520D+01  1  2  3  2  5  2       -3 -.179790092559D+02
0.143977149783D-02 0.000000000000D+00 0.000000000000D+00 0.919898167065D+00 0.000000000000D+00  5 3 -3 -13 13 21 2 0.25583242D-02 0.19305520D-01 0.12795214D+04 0.83468726D+04 0.83468726D+04 0.12175520D+01  1  2 15  2  5  2       -3 0.131829050143D+02
  </mgrwgt>
  </event>
  <event npLO=' -1 ' npNLO=' 0 '>
  5     66 0.13120323E+02 0.46600198E+02 0.75467711E-02 0.12067184E+00
        1 -1    0    0  501    0 0.00000000E+00 0.00000000E+00 0.59844676E+03 0.59844676E+03 0.00000000E+00 0.0000E+00 0.9000E+01
       -1 -1    0    0    0  501 0.00000000E+00 0.00000000E+00 -.24111942E+01 0.24111942E+01 0.00000000E+00 0.0000E+00 0.9000E+01
       23  2    1    2    0    0 0.00000000E+00 0.00000000E+00 0.59603556E+03 0.60085795E+03 0.75972925E+02 0.0000E+00 0.0000E+00
      -11  1    3    3    0    0 -.29449410E+02 -.23596365E+02 0.33241459E+03 0.33454972E+03 0.00000000E+00 0.0000E+00 0.9000E+01
       11  1    3    3    0    0 0.29449410E+02 0.23596365E+02 0.26362098E+03 0.26630823E+03 0.00000000E+00 0.0000E+00 0.9000E+01
#aMCatNLO 1  0  0  1  2 0.21196690D+02 0.00000000D+00  -5  5  0 0.00000000D+00 0.00000000D+00 0.00000000D+00 0.00000000D+00 0.00000000D+00
  <mgrwgt>
 0.4836068942D+03    7    2    0
 0.379864626999319D+02 0.000000000000000D+00 0.000000000000000D+00 0.379864626999319D+02
 0.379864626999319D+02 0.000000000000000D+00 0.000000000000000D+00 -.379864626999319D+02
 0.379864626999319D+02 -.294494099899725D+02 -.235963647087824D+02 0.434915764556258D+01
 0.379864626999319D+02 0.294494099899725D+02 0.235963647087824D+02 -.434915764556258D+01
 0.000000000000000D+00 0.000000000000000D+00 0.000000000000000D+00 0.000000000000000D+00
 0.142665631435356D+03 0.000000000000000D+00 0.000000000000000D+00 0.142665631435356D+03
 0.404378475094141D+02 0.000000000000000D+00 0.000000000000000D+00 -.404378475094141D+02
 0.497192071854423D+02 -.382724103815582D+02 -.314373503099192D+02 0.434915764556258D+01
 0.290566024150504D+02 0.227050228763951D+02 0.176026392300340D+02 -.434915764556258D+01
 0.104327669344277D+03 0.155673875051631D+02 0.138347110798852D+02 0.102227783925941D+03
0.231342081613D-01 0.000000000000D+00 0.000000000000D+00 0.350979794374D-02 0.000000000000D+00  5 1 -1 -11 11 21 0 0.92068732D-01 0.37095295D-03 0.14240562D+04 0.57718854D+04 0.57718854D+04 0.12348895D+01  1  2  2  1  5  1        1 0.533983830392D+03
-.128516576729D-02 0.000000000000D+00 -.888414507162D-04 0.350979794374D-02 0.000000000000D+00  5 1 -1 -11 11 21 2 0.92068732D-01 0.37095295D-03 0.14240562D+04 0.57718854D+04 0.57718854D+04 0.12348895D+01  1  2  3  1  5  1        1 -.496128592966D+02
0.123254883692D-02 0.000000000000D+00 0.000000000000D+00 0.350979794374D-02 0.000000000000D+00  5 1 -1 -11 11 21 2 0.92068732D-01 0.37095295D-03 0.14240562D+04 0.57718854D+04 0.57718854D+04 0.12348895D+01  1  2 15  1  5  1        1 0.433844195863D+02
0.126964181071D+00 0.000000000000D+00 0.000000000000D+00 0.350979794374D-02 0.000000000000D+00  5 1 -1 -11 11 21 2 0.36809663D+00 0.37095295D-03 0.24544288D+04 0.62056282D+04 0.62056282D+04 0.12314248D+01  1  2 12  1  5  1        1 0.247868058620D+03
-.109523272527D+00 0.000000000000D+00 -.876025203150D-02 0.350979794374D-02 0.000000000000D+00  5 1 -1 -11 11 21 2 0.34984411D+00 0.37095295D-03 0.14240562D+04 0.57718854D+04 0.57718854D+04 0.12348895D+01  1  2  5  1  5  1        1 -.288632659643D+03
0.209964473435D-01 0.000000000000D+00 0.000000000000D+00 0.350979794374D-02 0.000000000000D+00  5 21 -1 -11 11 -1 2 0.36809663D+00 0.37095295D-03 0.24544288D+04 0.62056282D+04 0.62056282D+04 0.12314248D+01  1  2 12  3  5  1        1 0.211086865997D+02
-.171517043123D-01 0.000000000000D+00 -.138582480439D-02 0.350979794374D-02 0.000000000000D+00  5 21 -1 -11 11 -1 2 0.34984411D+00 0.37095295D-03 0.14240562D+04 0.57718854D+04 0.57718854D+04 0.12348895D+01  1  2  5  3  5  1        1 -.244925820527D+02
  </mgrwgt>
  </event>
  <event npLO=' -1 ' npNLO=' 0 '>
  6     66 0.13120323E+02 0.91219648E+02 0.75467711E-02 0.11783118E+00
        3 -1    0    0  501    0 0.00000000E+00 0.00000000E+00 0.77674870E+01 0.77674870E+01 0.00000000E+00 0.0000E+00 0.9000E+01
       -3 -1    0    0    0  502 0.00000000E+00 0.00000000E+00 -.36499690E+03 0.36499690E+03 0.00000000E+00 0.0000E+00 0.9000E+01
       23  2    1    2    0    0 -.99639988E+01 -.74922976E+01 -.28604448E+03 0.30049607E+03 0.91219648E+02 0.0000E+00 0.0000E+00
      -11  1    3    3    0    0 -.21104076E+02 0.30295549E+02 -.55824341E+02 0.66929510E+02 0.00000000E+00 0.0000E+00 0.9000E+01
       11  1    3    3    0    0 0.11140077E+02 -.37787847E+02 -.23022014E+03 0.23356656E+03 0.00000000E+00 0.0000E+00 0.9000E+01
       21  1    1    2  501  502 0.99639988E+01 0.74922976E+01 -.71184928E+02 0.72268317E+02 0.00000000E+00 0.0000E+00 0.9000E+01
#aMCatNLO 2  0  0  2  1 0.14511028D+02 0.00000000D+00  -5  5  0 0.00000000D+00 0.00000000D+00 0.00000000D+00 0.00000000D+00 0.00000000D+00
  <mgrwgt>
 0.1649492959D+02    2    2    0
 0.456098242000297D+02 0.000000000000000D+00 0.000000000000000D+00 0.456098242000297D+02
 0.456098242000297D+02 0.000000000000000D+00 0.000000000000000D+00 -.456098242000297D+02
 0.456098242000297D+02 -.161778223980294D+02 0.339997802488541D+02 0.257400285362131D+02
 0.456098242000297D+02 0.161778223980294D+02 -.339997802488541D+02 -.257400285362131D+02
 0.000000000000000D+00 0.000000000000000D+00 0.000000000000000D+00 -.000000000000000D+00
 0.494848009510267D+02 0.000000000000000D+00 0.000000000000000D+00 0.494848009510267D+02
 0.572925138905355D+02 0.000000000000000D+00 0.000000000000000D+00 -.572925138905355D+02
 0.450083477639566D+02 -.211040758272133D+02 0.302955488954306D+02 0.257400285362131D+02
 0.470592363798887D+02 0.111400770146587D+02 -.377878465081122D+02 -.257400285362131D+02
 0.147097306977169D+02 0.996399881255452D+01 0.749229761268160D+01 -.780771293950876D+01
-.303258953888D-01 0.000000000000D+00 0.000000000000D+00 0.898723924109D+00 0.000000000000D+00  5 3 -3 -11 11 21 2 0.11014220D-02 0.60924117D-01 0.19706441D+04 0.84764401D+04 0.84764401D+04 0.12168444D+01  1  2 13  2  5  2       -3 -.965119015548D+02
0.332598069063D-01 0.000000000000D+00 0.000000000000D+00 0.898723924109D+00 0.467826551306D-01  5 3 -3 -11 11 21 2 0.11949980D-02 0.56153369D-01 0.19706441D+04 0.84764401D+04 0.84764401D+04 0.12168444D+01  1  2  1  2  5  2       -3 0.113006831146D+03
  </mgrwgt>
  </event>
  <event npLO=' -1 ' npNLO=' 0 '>
  5     66 0.13120323E+02 0.38939966E+02 0.75467711E-02 0.11776426E+00
        3 -1    0    0  501    0 0.00000000E+00 0.00000000E+00 0.66977219E+01 0.66977219E+01 0.00000000E+00 0.0000E+00 0.9000E+01
       -3 -1    0    0    0  501 0.00000000E+00 0.00000000E+00 -.31421023E+03 0.31421023E+03 0.00000000E+00 0.0000E+00 0.9000E+01
       23  2    1    2    0    0 0.00000000E+00 0.00000000E+00 -.30751251E+03 0.32090795E+03 0.91749502E+02 0.0000E+00 0.0000E+00
      -11  1    3    3    0    0 -.26168091E+02 0.29049880E+02 -.69825092E+02 0.80026296E+02 0.00000000E+00 0.0000E+00 0.9000E+01
       11  1    3    3    0    0 0.26168091E+02 -.29049880E+02 -.23768742E+03 0.24088166E+03 0.00000000E+00 0.0000E+00 0.9000E+01
#aMCatNLO 1  0  0  2  1 0.31427546D+02 0.00000000D+00  -5  5  0 0.00000000D+00 0.00000000D+00 0.00000000D+00 0.00000000D+00 0.00000000D+00
  <mgrwgt>
 0.1642891252D+03    6    2    0
 0.458747508840027D+02 0.000000000000000D+00 0.000000000000000D+00 0.458747508840027D+02
 0.458747508840027D+02 0.000000000000000D+00 0.000000000000000D+00 -.458747508840027D+02
 0.458747508840027D+02 -.261680912613251D+02 0.290498802235056D+02 0.239964211374997D+02
 0.458747508840027D+02 0.261680912613251D+02 -.290498802235056D+02 -.239964211374997D+02
 0.000000000000000D+00 -.000000000000000D+00 0.000000000000000D+00 0.000000000000000D+00
 0.630593157601184D+02 0.000000000000000D+00 0.000000000000000D+00 0.630593157601184D+02
 0.480258242829842D+02 0.000000000000000D+00 0.000000000000000D+00 -.480258242829842D+02
 0.425018900204930D+02 -.258182688107625D+02 0.237486720370014D+02 0.239964211374997D+02
 0.499131419950997D+02 0.265472497706127D+02 -.347956469408380D+02 -.239964211374997D+02
 0.186701080275099D+02 -.728980959850199D+00 0.110469749038367D+02 0.150334914771342D+02
0.384943097911D-01 0.000000000000D+00 0.000000000000D+00 0.730206855979D+00 0.000000000000D+00  5 3 -3 -11 11 21 0 0.10304188D-02 0.48340036D-01 0.15286645D+04 0.84179711D+04 0.84179711D+04 0.12171622D+01  1  2  2  2  5  2       -3 0.150093213082D+03
-.207214091010D-02 0.000000000000D+00 -.147828285382D-03 0.730206855979D+00 0.000000000000D+00  5 3 -3 -11 11 21 2 0.10304188D-02 0.48340036D-01 0.15286645D+04 0.84179711D+04 0.84179711D+04 0.12171622D+01  1  2  3  2  5  2       -3 -.134264009685D+02
0.193108912175D-02 0.000000000000D+00 0.000000000000D+00 0.730206855979D+00 0.000000000000D+00  5 3 -3 -11 11 21 2 0.10304188D-02 0.48340036D-01 0.15286645D+04 0.84179711D+04 0.84179711D+04 0.12171622D+01  1  2 15  2  5  2       -3 0.111548500635D+02
0.832502153717D-02 0.000000000000D+00 0.000000000000D+00 0.730206855979D+00 0.000000000000D+00  5 3 -3 -11 11 21 2 0.10304188D-02 0.69563850D-01 0.20212672D+04 0.85405381D+04 0.85405381D+04 0.12164988D+01  1  2 12  2  5  2       -3 0.215654686612D+02
-.358480933202D-02 0.000000000000D+00 0.000000000000D+00 0.730206855979D+00 0.000000000000D+00  5 3 -3 -11 11 21 2 0.10304188D-02 0.48340036D-01 0.15286645D+04 0.84179711D+04 0.84179711D+04 0.12171622D+01  1  2  4  2  5  2       -3 -.207074909981D+02
0.369956261976D-03 0.000000000000D+00 0.000000000000D+00 0.730206855979D+00 0.000000000000D+00  5 3 21 -11 11 3 2 0.10304188D-02 0.69563850D-01 0.20212672D+04 0.85405381D+04 0.85405381D+04 0.12164988D+01  1  2 12  4  5  2       -3 0.156094853510D+02
  </mgrwgt>
  </event>
  <event npLO=' -1 ' npNLO=' 0 '>
  6     66 0.13120323E+02 0.84636235E+02 0.75467711E-02 0.11927743E+00
        5 -1    0    0  501    0 0.00000000E+00 0.00000000E+00 0.25579219E+03 0.25579219E+03 0.00000000E+00 0.0000E+00 0.9000E+01
       21 -1    0    0  502  501 0.00000000E+00 0.00000000E+00 -.10285957E+02 0.10285957E+02 0.00000000E+00 0.0000E+00 0.9000E+01
       23  2    1    2    0    0 -.68810268E+01 -.28046279E+01 0.24416847E+03 0.25852804E+03 0.84636235E+02 0.0000E+00 0.0000E+00
      -13  1    3    3    0    0 0.29715926E+02 0.82992718E+01 0.18837712E+03 0.19088701E+03 0.00000000E+00 0.0000E+00 0.9000E+01
       13  1    3    3    0    0 -.36596952E+02 -.11103900E+02 0.55791354E+02 0.67641028E+02 0.00000000E+00 0.0000E+00 0.9000E+01
        5  1    1    2  502    0 0.68810268E+01 0.28046279E+01 0.13377626E+01 0.75501044E+01 0.00000000E+00 0.0000E+00 0.9000E+01
#aMCatNLO 2  0  0  2  1 0.76414000D+01 0.00000000D+00  -5  5  0 0.00000000D+00 0.00000000D+00 0.00000000D+00 0.00000000D+00 0.00000000D+00
  <mgrwgt>
 0.6818486182D+01    2    2    0
 0.423181174560053D+02 0.000000000000000D+00 0.000000000000000D+00 0.423181174560053D+02
 0.423181174560053D+02 0.000000000000000D+00 0.000000000000000D+00 -.423181174560053D+02
 0.423181174560053D+02 0.330344948332074D+02 0.965188274369933D+01 0.246249137183652D+02
 0.423181174560053D+02 -.330344948332074D+02 -.965188274369933D+01 -.246249137183652D+02
 0.000000000000000D+00 0.000000000000000D+00 0.000000000000000D+00 -.000000000000000D+00
 0.432319763988001D+02 0.000000000000000D+00 0.000000000000000D+00 0.432319763988001D+02
 0.608592908979202D+02 0.000000000000000D+00 0.000000000000000D+00 -.608592908979202D+02
 0.394753153810828D+02 0.297159256229162D+02 0.829927184591129D+01 0.246249137183652D+02
 0.454864803123428D+02 -.365969524116344D+02 -.111038997540859D+02 -.246249137183652D+02
 0.191294716032947D+02 0.688102678871823D+01 0.280462790817461D+01 -.176273144991201D+02
-.441833493203D-02 0.000000000000D+00 0.000000000000D+00 0.293228174117D-01 0.000000000000D+00  5 5 21 -13 13 5 2 0.38520789D-01 0.16166280D-02 0.14641391D+04 0.72185067D+04 0.72185067D+04 0.12242893D+01  1  2 13  4  5  2       -5 -.167451274840D+03
0.465840320518D-02 0.000000000000D+00 0.000000000000D+00 0.293228174117D-01 0.210480395209D-03  5 5 21 -13 13 5 2 0.39352645D-01 0.15824549D-02 0.14641391D+04 0.72185067D+04 0.72185067D+04 0.12242893D+01  1  2  1  4  5  2       -5 0.174269761022D+03
  </mgrwgt>
  </event>
  <event npLO=' -1 ' npNLO=' 0 '>
  5     66 -.13120323E+02 0.53015432E+02 0.75467711E-02 0.11782405E+00
        5 -1    0    0  501    0 0.00000000E+00 0.00000000E+00 0.20785976E+01 0.20785976E+01 0.00000000E+00 0.0000E+00 0.9000E+01
       -5 -1    0    0    0  501 0.00000000E+00 0.00000000E+00 -.10202822E+04 0.10202822E+04 0.00000000E+00 0.0000E+00 0.9000E+01
       23  2    1    2    0    0 0.00000000E+00 0.00000000E+00 -.10182036E+04 0.10223608E+04 0.92103335E+02 0.0000E+00 0.0000E+00
      -11  1    3    3    0    0 -.34231183E+02 0.87967486E+01 -.18139360E+03 0.18480475E+03 0.00000000E+00 0.0000E+00 0.9000E+01
       11  1    3    3    0    0 0.34231183E+02 -.87967486E+01 -.83680997E+03 0.83755601E+03 0.00000000E+00 0.0000E+00 0.9000E+01
#aMCatNLO 1  0  0  1  2 0.50544134D+00 0.00000000D+00  -5  5  0 0.00000000D+00 0.00000000D+00 0.00000000D+00 0.00000000D+00 0.00000000D+00
  <mgrwgt>
 -.4587530939D+03   11    2    0
 0.460516676906859D+02 0.000000000000000D+00 0.000000000000000D+00 0.460516676906859D+02
 0.460516676906859D+02 0.000000000000000D+00 0.000000000000000D+00 -.460516676906859D+02
 0.460516676906859D+02 -.342311827993838D+02 0.879674858949450D+01 0.295228629286144D+02
 0.460516676906859D+02 0.342311827993838D+02 -.879674858949450D+01 -.295228629286144D+02
 0.000000000000000D+00 0.000000000000000D+00 0.000000000000000D+00 0.000000000000000D+00
 0.466121474903136D+02 0.000000000000000D+00 0.000000000000000D+00 0.466121474903136D+02
 0.461493306475912D+02 0.000000000000000D+00 0.000000000000000D+00 -.461493306475912D+02
 0.461689551260659D+02 -.344226783907034D+02 0.866326695543485D+01 0.295228629286144D+02
 0.459355604459543D+02 0.340401718507712D+02 -.892989240428628D+01 -.295228629286144D+02
 0.656962565884625D+00 0.382506539932247D+00 0.266625448851427D+00 0.462816842722415D+00
0.241189901558D+00 0.000000000000D+00 0.000000000000D+00 0.614681462996D+00 0.000000000000D+00  5 5 -5 -11 11 21 0 0.31978425D-03 0.15696649D+00 0.12491567D+04 0.84830244D+04 0.84830244D+04 0.12168088D+01  1  2  2  1  5  1        5 0.506053704427D+02
-.122583526202D-01 0.000000000000D+00 -.926232728741D-03 0.614681462996D+00 0.000000000000D+00  5 5 -5 -11 11 21 2 0.31978425D-03 0.15696649D+00 0.12491567D+04 0.84830244D+04 0.84830244D+04 0.12168088D+01  1  2  3  1  5  1        5 -.435934869432D+01
0.117556430259D-01 0.000000000000D+00 0.000000000000D+00 0.614681462996D+00 0.000000000000D+00  5 5 -5 -11 11 21 2 0.31978425D-03 0.15696649D+00 0.12491567D+04 0.84830244D+04 0.84830244D+04 0.12168088D+01  1  2 15  1  5  1        5 0.365198122439D+01
0.244831641995D-13 0.000000000000D+00 0.000000000000D+00 0.614681462996D+00 0.000000000000D+00  5 5 -5 -11 11 21 2 0.32436267D-03 0.15696649D+00 0.12657354D+04 0.84832418D+04 0.84832418D+04 0.12168076D+01  1  2 12  1  5  1        5 0.745403112218D-11
-.945368313105D+01 0.000000000000D+00 0.000000000000D+00 0.614681462996D+00 0.000000000000D+00  5 5 -5 -11 11 21 2 0.31978425D-03 0.15696649D+00 0.12491567D+04 0.84830244D+04 0.84830244D+04 0.12168088D+01  1  2  4  1  5  1        5 -.293685961882D+04
-.273613623006D+02 0.000000000000D+00 -.257368558113D+01 0.614681462996D+00 0.000000000000D+00  5 5 -5 -11 11 21 2 0.32438180D-03 0.15696649D+00 0.12491567D+04 0.84830244D+04 0.84830244D+04 0.12168088D+01  1  2  5  1  5  1        5 -.983046684184D+04
0.273955717766D+02 0.000000000000D+00 0.257342338892D+01 0.614681462996D+00 0.000000000000D+00  5 5 -5 -11 11 21 2 0.31978425D-03 0.15696649D+00 0.12491567D+04 0.84830244D+04 0.84830244D+04 0.12168088D+01  1  2  6  1  5  1        5 0.100420782576D+05
0.945421717127D+01 0.000000000000D+00 0.000000000000D+00 0.614681462996D+00 0.223283633432D+02  5 5 -5 -11 11 21 2 0.32367624D-03 0.15729937D+00 0.12657354D+04 0.84832418D+04 0.84832418D+04 0.12168076D+01  1  2 11  1  5  1        5 0.286711003463D+04
0.242920380965D-14 0.000000000000D+00 0.000000000000D+00 0.614681462996D+00 0.000000000000D+00  5 21 -5 -11 11 -5 2 0.32436267D-03 0.15696649D+00 0.12657354D+04 0.84832418D+04 0.84832418D+04 0.12168076D+01  1  2 12  3  5  1        5 0.255603748663D-10
-.714961842465D-01 0.000000000000D+00 -.674329938652D-02 0.614681462996D+00 0.000000000000D+00  5 21 -5 -11 11 -5 2 0.32438180D-03 0.15696649D+00 0.12491567D+04 0.84830244D+04 0.84830244D+04 0.12168088D+01  1  2  5  3  5  1        5 -.888134094856D+03
0.226716471063D-01 0.000000000000D+00 0.000000000000D+00 0.614681462996D+00 0.498885404383D-01  5 21 -5 -11 11 -5 2 0.32367624D-03 0.15729937D+00 0.12657354D+04 0.84832418D+04 0.84832418D+04 0.12168076D+01  1  2 11  3  5  1        5 0.237621166356D+03
  </mgrwgt>
  </event>
  <event npLO=' -1 ' npNLO=' 0 '>
  5     66 0.13120323E+02 0.62131579E+02 0.75467711E-02 0.11894284E+00
        1 -1    0    0  501    0 0.00000000E+00 0.00000000E+00 0.37205595E+01 0.37205595E+01 0.00000000E+00 0.0000E+00 0.9000E+01
       -1 -1    0    0    0  501 0.00000000E+00 0.00000000E+00 -.49781989E+03 0.49781989E+03 0.00000000E+00 0.0000E+00 0.9000E+01
       23  2    1    2    0    0 0.00000000E+00 0.00000000E+00 -.49409933E+03 0.50154045E+03 0.86073655E+02 0.0000E+00 0.0000E+00
      -13  1    3    3    0    0 -.36322472E+01 -.52783056E+01 -.49502513E+03 0.49506659E+03 0.00000000E+00 0.0000E+00 0.9000E+01
       13  1    3    3    0    0 0.36322472E+01 0.52783056E+01 0.92579698E+00 0.64738574E+01 0.00000000E+00 0.0000E+00 0.9000E+01
#aMCatNLO 1  0  0  2  1 0.28693452D+02 0.00000000D+00  -5  5  0 0.00000000D+00 0.00000000D+00 0.00000000D+00 0.00000000D+00 0.00000000D+00
  <mgrwgt>
 0.3445688464D+03    6    2    0
 0.430368273914381D+02 0.000000000000000D+00 0.000000000000000D+00 0.430368273914381D+02
 0.430368273914381D+02 0.000000000000000D+00 0.000000000000000D+00 -.430368273914381D+02
 0.430368273914381D+02 -.363224717959077D+01 -.527830561743006D+01 -.425571942467522D+02
 0.430368273914381D+02 0.363224717959077D+01 0.527830561743006D+01 0.425571942467522D+02
 0.000000000000000D+00 -.000000000000000D+00 -.000000000000000D+00 0.000000000000000D+00
 0.589453222974742D+02 0.000000000000000D+00 0.000000000000000D+00 0.589453222974742D+02
 0.445523582598634D+02 0.000000000000000D+00 0.000000000000000D+00 -.445523582598634D+02
 0.428445530679054D+02 0.812330202251661D+00 -.488682566450614D+01 -.425571942467522D+02
 0.436950023027028D+02 0.812083744773252D+01 0.567366224099694D+01 0.425571942467522D+02
 0.169581251867294D+02 -.893316764998418D+01 -.786836576490796D+00 0.143929640376108D+02
0.360474435716D-01 0.000000000000D+00 0.000000000000D+00 0.779420145328D-01 0.000000000000D+00  5 1 -1 -13 13 21 0 0.57239377D-03 0.76587675D-01 0.41053730D+02 0.74086740D+04 0.74086740D+04 0.12230744D+01  1  2  2  2  5  2       -1 0.248267345060D+03
0.683015675711D-02 0.000000000000D+00 -.138431674825D-03 0.779420145328D-01 0.000000000000D+00  5 1 -1 -13 13 21 2 0.57239377D-03 0.76587675D-01 0.41053730D+02 0.74086740D+04 0.74086740D+04 0.12230744D+01  1  2  3  2  5  2       -1 0.629590653177D+02
0.114213660077D-02 0.000000000000D+00 0.000000000000D+00 0.779420145328D-01 0.000000000000D+00  5 1 -1 -13 13 21 2 0.57239377D-03 0.76587675D-01 0.41053730D+02 0.74086740D+04 0.74086740D+04 0.12230744D+01  1  2 15  2  5  2       -1 0.117670853640D+02
0.793325565707D-02 0.000000000000D+00 0.000000000000D+00 0.779420145328D-01 0.000000000000D+00  5 1 -1 -13 13 21 2 0.57239377D-03 0.10859215D+00 0.14194482D+03 0.74890946D+04 0.74890946D+04 0.12225710D+01  1  2 12  2  5  2       -1 0.394927931031D+02
-.291049490873D-02 0.000000000000D+00 0.000000000000D+00 0.779420145328D-01 0.000000000000D+00  5 1 -1 -13 13 21 2 0.57239377D-03 0.76587675D-01 0.41053730D+02 0.74086740D+04 0.74086740D+04 0.12230744D+01  1  2  4  2  5  2       -1 -.299859421540D+02
0.342114811841D-03 0.000000000000D+00 0.000000000000D+00 0.779420145328D-01 0.000000000000D+00  5 1 21 -13 13 1 2 0.57239377D-03 0.10859215D+00 0.14194482D+03 0.74890946D+04 0.74890946D+04 0.12225710D+01  1  2 12  4  5  2       -1 0.120684996654D+02
  </mgrwgt>
  </event>
  <event npLO=' -1 ' npNLO=' 0 '>
  5     66 0.13120323E+02 0.92120359E+02 0.75467711E-02 0.11333762E+00
        1 -1    0    0  501    0 0.00000000E+00 0.00000000E+00 0.84644950E+02 0.84644950E+02 0.00000000E+00 0.0000E+00 0.9000E+01
       -1 -1    0    0    0  501 0.00000000E+00 0.00000000E+00 -.25063990E+02 0.25063990E+02 0.00000000E+00 0.0000E+00 0.9000E+01
       23  2    1    2    0    0 0.00000000E+00 0.00000000E+00 0.59580960E+02 0.10970894E+03 0.92120359E+02 0.0000E+00 0.0000E+00
      -13  1    3    3    0    0 0.20531996E+02 -.22701712E+01 -.19238025E+02 0.28227967E+02 0.00000000E+00 0.0000E+00 0.9000E+01
       13  1    3    3    0    0 -.20531996E+02 0.22701712E+01 0.78818984E+02 0.81480972E+02 0.00000000E+00 0.0000E+00 0.9000E+01
#aMCatNLO 1  0  0  2  1 0.18970335D+03 0.00000000D+00  -5  5  0 0.00000000D+00 0.00000000D+00 0.00000000D+00 0.00000000D+00 0.00000000D+00
  <mgrwgt>
 0.3384768322D+03    3    2    0
 0.460601796363289D+02 0.000000000000000D+00 0.000000000000000D+00 0.460601796363289D+02
 0.460601796363289D+02 0.000000000000000D+00 0.000000000000000D+00 -.460601796363289D+02
 0.460601796363289D+02 0.205319957291359D+02 -.227017118965955D+01 -.411682355983259D+02
 0.460601796363289D+02 -.205319957291359D+02 0.227017118965955D+01 0.411682355983259D+02
 0.000000000000000D+00 -.000000000000000D+00 0.000000000000000D+00 0.000000000000000D+00
 0.211039375985452D+03 0.000000000000000D+00 0.000000000000000D+00 0.211039375985452D+03
 0.695733602379637D+02 0.000000000000000D+00 0.000000000000000D+00 -.695733602379637D+02
 0.740150984264952D+02 0.533212922405355D+02 -.306635119743958D+02 -.411682355983259D+02
 0.457532264479876D+02 0.453975129813385D+01 -.194402871962493D+02 0.411682355983259D+02
 0.160844411348933D+03 -.578610435386693D+02 0.501037991706451D+02 0.141466015747488D+03
0.295426714346D-01 0.000000000000D+00 0.000000000000D+00 0.120201461230D+01 0.000000000000D+00  5 1 -1 -13 13 21 0 0.13022300D-01 0.38559984D-02 0.42671653D+03 0.84861606D+04 0.84861606D+04 0.12167918D+01  1  2  2  2  5  2       -1 0.332974595584D+03
-.358080967973D-03 0.000000000000D+00 -.113451637073D-03 0.120201461230D+01 0.000000000000D+00  5 1 -1 -13 13 21 2 0.13022300D-01 0.38559984D-02 0.42671653D+03 0.84861606D+04 0.84861606D+04 0.12167918D+01  1  2  3  2  5  2       -1 -.116364227312D+02
0.102702959743D-02 0.000000000000D+00 0.000000000000D+00 0.120201461230D+01 0.000000000000D+00  5 1 -1 -13 13 21 2 0.13022300D-01 0.38559984D-02 0.42671653D+03 0.84861606D+04 0.84861606D+04 0.12167918D+01  1  2 15  2  5  2       -1 0.171386593120D+02
  </mgrwgt>
  </event>
  <event npLO=' -1 ' npNLO=' 0 '>
  5     66 0.13120323E+02 0.35772947E+02 0.75467711E-02 0.11781874E+00
        3 -1    0    0  501    0 0.00000000E+00 0.00000000E+00 0.12719105E+03 0.12719105E+03 0.00000000E+00 0.0000E+00 0.9000E+01
       -3 -1    0    0    0  501 0.00000000E+00 0.00000000E+00 -.15178089E+02 0.15178089E+02 0.00000000E+00 0.0000E+00 0.9000E+01
       23  2    1    2    0    0 0.00000000E+00 0.00000000E+00 0.11201296E+03 0.14236914E+03 0.87875300E+02 0.0000E+00 0.0000E+00
      -11  1    3    3    0    0 0.32999319E+02 -.15296094E+01 0.90724806E+01 0.34257913E+02 0.00000000E+00 0.0000E+00 0.9000E+01
       11  1    3    3    0    0 -.32999319E+02 0.15296094E+01 0.10294048E+03 0.10811122E+03 0.00000000E+00 0.0000E+00 0.9000E+01
#aMCatNLO 1  0  0  2  1 0.41956201D+02 0.00000000D+00  -5  5  0 0.00000000D+00 0.00000000D+00 0.00000000D+00 0.00000000D+00 0.00000000D+00
  <mgrwgt>
 0.1479321738D+03    6    2    0
 0.439376501251946D+02 0.000000000000000D+00 0.000000000000000D+00 0.439376501251946D+02
 0.439376501251946D+02 0.000000000000000D+00 0.000000000000000D+00 -.439376501251946D+02
 0.439376501251946D+02 0.329993185771447D+02 -.152960938677598D+01 -.289693349439025D+02
 0.439376501251946D+02 -.329993185771447D+02 0.152960938677598D+01 0.289693349439025D+02
 0.000000000000000D+00 -.000000000000000D+00 -.000000000000000D+00 0.000000000000000D+00
 0.624608441358148D+02 0.000000000000000D+00 0.000000000000000D+00 0.624608441358148D+02
 0.577503083405520D+02 0.000000000000000D+00 0.000000000000000D+00 -.577503083405520D+02
 0.559942703900715D+02 0.478583738307957D+02 0.238997985268455D+01 -.289693349439025D+02
 0.361377821275543D+02 -.210927599303325D+02 0.467037563028150D+01 0.289693349439025D+02
 0.280790999587410D+02 -.267656139004632D+02 -.706035548296604D+01 0.471053579526287D+01
0.236912325953D-01 0.000000000000D+00 0.000000000000D+00 0.139101610899D+00 0.000000000000D+00  5 3 -3 -11 11 21 0 0.19567854D-01 0.23350907D-02 0.10912947D+04 0.77220684D+04 0.77220684D+04 0.12211463D+01  1  2  2  2  5  2       -3 0.162525338684D+03
-.118600361568D-02 0.000000000000D+00 -.909805712108D-04 0.139101610899D+00 0.000000000000D+00  5 3 -3 -11 11 21 2 0.19567854D-01 0.23350907D-02 0.10912947D+04 0.77220684D+04 0.77220684D+04 0.12211463D+01  1  2  3  2  5  2       -3 -.139537754849D+02
0.105300542165D-02 0.000000000000D+00 0.000000000000D+00 0.139101610899D+00 0.000000000000D+00  5 3 -3 -11 11 21 2 0.19567854D-01 0.23350907D-02 0.10912947D+04 0.77220684D+04 0.77220684D+04 0.12211463D+01  1  2 15  2  5  2       -3 0.107720759697D+02
0.445735564417D-02 0.000000000000D+00 0.000000000000D+00 0.139101610899D+00 0.000000000000D+00  5 3 -3 -11 11 21 2 0.19567854D-01 0.43630707D-02 0.23620964D+04 0.84883151D+04 0.84883151D+04 0.12167802D+01  1  2 12  2  5  2       -3 0.183528555432D+02
-.510431032335D-02 0.000000000000D+00 0.000000000000D+00 0.139101610899D+00 0.000000000000D+00  5 3 -3 -11 11 21 2 0.19567854D-01 0.23350907D-02 0.10912947D+04 0.77220684D+04 0.77220684D+04 0.12211463D+01  1  2  4  2  5  2       -3 -.522162730086D+02
0.303465449166D-03 0.000000000000D+00 0.000000000000D+00 0.139101610899D+00 0.000000000000D+00  5 3 21 -11 11 3 2 0.19567854D-01 0.43630707D-02 0.23620964D+04 0.84883151D+04 0.84883151D+04 0.12167802D+01  1  2 12  4  5  2       -3 0.224519520472D+02
  </mgrwgt>
  </event>
  <event npLO=' -1 ' npNLO=' 0 '>
  5     66 0.13120323E+02 0.46426296E+02 0.75467711E-02 0.11903117E+00
        3 -1    0    0  501    0 0.00000000E+00 0.00000000E+00 0.29051414E+01 0.29051414E+01 0.00000000E+00 0.0000E+00 0.9000E+01
       -3 -1    0    0    0  501 0.00000000E+00 0.00000000E+00 -.62217015E+03 0.62217015E+03 0.00000000E+00 0.0000E+00 0.9000E+01
       23  2    1    2    0    0 0.00000000E+00 0.00000000E+00 -.61926501E+03 0.62507529E+03 0.85029224E+02 0.0000E+00 0.0000E+00
      -11  1    3    3    0    0 -.28029753E+02 -.31179172E+02 -.36144976E+03 0.36387324E+03 0.00000000E+00 0.0000E+00 0.9000E+01
       11  1    3    3    0    0 0.28029753E+02 0.31179172E+02 -.25781525E+03 0.26120205E+03 0.00000000E+00 0.0000E+00 0.9000E+01
#aMCatNLO 1  0  0  1  2 0.15944311D+02 0.00000000D+00  -5  5  0 0.00000000D+00 0.00000000D+00 0.00000000D+00 0.00000000D+00 0.00000000D+00
  <mgrwgt>
 0.1180889623D+03    9    2    0
 0.425146121869796D+02 0.000000000000000D+00 0.000000000000000D+00 0.425146121869796D+02
 0.425146121869796D+02 0.000000000000000D+00 0.000000000000000D+00 -.425146121869796D+02
 0.425146121869796D+02 -.280297527732994D+02 -.311791717631245D+02 -.704872024147416D+01
 0.425146121869796D+02 0.280297527732994D+02 0.311791717631245D+02 0.704872024147416D+01
 0.000000000000000D+00 -.000000000000000D+00 -.000000000000000D+00 0.000000000000000D+00
 0.553940626653968D+02 0.000000000000000D+00 0.000000000000000D+00 0.553940626653968D+02
 0.468412743989390D+02 0.000000000000000D+00 0.000000000000000D+00 -.468412743989390D+02
 0.365815445422094D+02 -.252548279254299D+02 -.255091867864894D+02 -.704872024147416D+01
 0.495378123298841D+02 0.312592214436048D+02 0.377779230255970D+02 0.704872024147416D+01
 0.161159801922424D+02 -.600439351817482D+01 -.122687362391076D+02 0.855278826645772D+01
0.503639216993D-01 0.000000000000D+00 0.000000000000D+00 0.261285409500D-01 0.000000000000D+00  5 3 -3 -11 11 21 0 0.44694483D-03 0.95718485D-01 0.17578078D+04 0.72299690D+04 0.72299690D+04 0.12242151D+01  1  2  2  1  5  1        3 0.128932052803D+03
-.279733490525D-02 0.000000000000D+00 -.193410720451D-03 0.261285409500D-01 0.000000000000D+00  5 3 -3 -11 11 21 2 0.44694483D-03 0.95718485D-01 0.17578078D+04 0.72299690D+04 0.72299690D+04 0.12242151D+01  1  2  3  1  5  1        3 -.117819028582D+02
0.249592004467D-02 0.000000000000D+00 0.000000000000D+00 0.261285409500D-01 0.000000000000D+00  5 3 -3 -11 11 21 2 0.44694483D-03 0.95718485D-01 0.17578078D+04 0.72299690D+04 0.72299690D+04 0.12242151D+01  1  2 15  1  5  1        3 0.957607415659D+01
0.497656614239D-01 0.000000000000D+00 0.000000000000D+00 0.261285409500D-01 0.000000000000D+00  5 3 -3 -11 11 21 2 0.64160744D-03 0.95718485D-01 0.24299492D+04 0.74165436D+04 0.74165436D+04 0.12230248D+01  1  2 12  1  5  1        3 0.116305936935D+03
-.525951283715D-01 0.000000000000D+00 0.000000000000D+00 0.261285409500D-01 0.000000000000D+00  5 3 -3 -11 11 21 2 0.44694483D-03 0.95718485D-01 0.17578078D+04 0.72299690D+04 0.72299690D+04 0.12242151D+01  1  2  4  1  5  1        3 -.201791259555D+03
-.830781686624D-01 0.000000000000D+00 -.266924090340D-01 0.261285409500D-01 0.000000000000D+00  5 3 -3 -11 11 21 2 0.64242202D-03 0.95718485D-01 0.17578078D+04 0.72299690D+04 0.72299690D+04 0.12242151D+01  1  2  5  1  5  1        3 -.281834050201D+03
0.885364845765D-01 0.000000000000D+00 0.250270871882D-01 0.261285409500D-01 0.000000000000D+00  5 3 -3 -11 11 21 2 0.44694483D-03 0.95718485D-01 0.17578078D+04 0.72299690D+04 0.72299690D+04 0.12242151D+01  1  2  6  1  5  1        3 0.475477182942D+03
0.220078899158D-02 0.000000000000D+00 0.000000000000D+00 0.261285409500D-01 0.000000000000D+00  5 21 -3 -11 11 -3 2 0.64160744D-03 0.95718485D-01 0.24299492D+04 0.74165436D+04 0.74165436D+04 0.12230248D+01  1  2 12  3  5  1        3 0.109317528862D+03
-.288817796899D-02 0.000000000000D+00 -.118341476238D-02 0.261285409500D-01 0.000000000000D+00  5 21 -3 -11 11 -3 2 0.64242202D-03 0.95718485D-01 0.17578078D+04 0.72299690D+04 0.72299690D+04 0.12242151D+01  1  2  5  3  5  1        3 -.226112600774D+03
  </mgrwgt>
  </event>
  <event npLO=' -1 ' npNLO=' 0 '>
  5     66 0.13120323E+02 0.60146454E+02 0.75467711E-02 0.11806529E+00
        5 -1    0    0  501    0 0.00000000E+00 0.00000000E+00 0.36214990E+03 0.36214990E+03 0.00000000E+00 0.0000E+00 0.9000E+01
       -5 -1    0    0    0  501 0.00000000E+00 0.00000000E+00 -.53478561E+01 0.53478561E+01 0.00000000E+00 0.0000E+00 0.9000E+01
       23  2    1    2    0    0 0.00000000E+00 0.00000000E+00 0.35680205E+03 0.36749776E+03 0.88016489E+02 0.0000E+00 0.0000E+00
      -13  1    3    3    0    0 0.16347898E+02 -.32042747E+02 0.28425480E+03 0.28652187E+03 0.00000000E+00 0.0000E+00 0.9000E+01
       13  1    3    3    0    0 -.16347898E+02 0.32042747E+02 0.72547248E+02 0.80975889E+02 0.00000000E+00 0.0000E+00 0.9000E+01
#aMCatNLO 1  0  0  1  2 0.29412995D+02 0.00000000D+00  -5  5  0 0.00000000D+00 0.00000000D+00 0.00000000D+00 0.00000000D+00 0.00000000D+00
  <mgrwgt>
 0.2581549271D+02    9    2    0
 0.440082445314687D+02 0.000000000000000D+00 0.000000000000000D+00 0.440082445314687D+02
 0.440082445314687D+02 0.000000000000000D+00 0.000000000000000D+00 -.440082445314687D+02
 0.440082445314687D+02 0.163478983936468D+02 -.320427467725635D+02 0.253522027469393D+02
 0.440082445314687D+02 -.163478983936468D+02 0.320427467725635D+02 -.253522027469393D+02
 0.000000000000000D+00 0.000000000000000D+00 0.000000000000000D+00 0.000000000000000D+00
 0.595693736223202D+02 0.000000000000000D+00 0.000000000000000D+00 0.595693736223202D+02
 0.544453983977284D+02 0.000000000000000D+00 0.000000000000000D+00 -.544453983977284D+02
 0.473976548523908D+02 0.742463479831548D+01 -.393532501770323D+02 0.253522027469393D+02
 0.434678316830037D+02 -.248875232057063D+02 0.250465445877361D+02 -.253522027469393D+02
 0.231492854846541D+02 0.174628884073908D+02 0.143067055892963D+02 0.512397522459174D+01
0.224381609908D-01 0.000000000000D+00 0.000000000000D+00 0.113935455116D+00 0.000000000000D+00  5 5 -5 -13 13 21 0 0.55715370D-01 0.82274710D-03 0.12939914D+04 0.77469023D+04 0.77469023D+04 0.12209973D+01  1  2  2  1  5  1        5 0.199413059645D+02
-.118494446136D-02 0.000000000000D+00 -.861684463080D-04 0.113935455116D+00 0.000000000000D+00  5 5 -5 -13 13 21 2 0.55715370D-01 0.82274710D-03 0.12939914D+04 0.77469023D+04 0.77469023D+04 0.12209973D+01  1  2  3  1  5  1        5 -.177428900022D+01
0.975193613036D-03 0.000000000000D+00 0.000000000000D+00 0.113935455116D+00 0.000000000000D+00  5 5 -5 -13 13 21 2 0.55715370D-01 0.82274710D-03 0.12939914D+04 0.77469023D+04 0.77469023D+04 0.12209973D+01  1  2 15  1  5  1        5 0.129207156091D+01
0.104474753884D-01 0.000000000000D+00 0.000000000000D+00 0.113935455116D+00 0.000000000000D+00  5 5 -5 -13 13 21 2 0.93302041D-01 0.82274710D-03 0.23976444D+04 0.82565366D+04 0.82565366D+04 0.12180526D+01  1  2 12  1  5  1        5 0.385253936749D+01
-.109484002856D-01 0.000000000000D+00 0.000000000000D+00 0.113935455116D+00 0.000000000000D+00  5 5 -5 -13 13 21 2 0.55715370D-01 0.82274710D-03 0.12939914D+04 0.77469023D+04 0.77469023D+04 0.12209973D+01  1  2  4  1  5  1        5 -.145059570298D+02
-.136699207177D-01 0.000000000000D+00 -.937932011395D-02 0.113935455116D+00 0.000000000000D+00  5 5 -5 -13 13 21 2 0.90168823D-01 0.82274710D-03 0.12939914D+04 0.77469023D+04 0.77469023D+04 0.12209973D+01  1  2  5  1  5  1        5 -.122015648893D+02
0.171502341694D-01 0.000000000000D+00 0.838830900731D-02 0.113935455116D+00 0.000000000000D+00  5 5 -5 -13 13 21 2 0.55715370D-01 0.82274710D-03 0.12939914D+04 0.77469023D+04 0.77469023D+04 0.12209973D+01  1  2  6  1  5  1        5 0.426121806041D+02
0.603672071201D-03 0.000000000000D+00 0.000000000000D+00 0.113935455116D+00 0.000000000000D+00  5 21 -5 -13 13 -5 2 0.93302041D-01 0.82274710D-03 0.23976444D+04 0.82565366D+04 0.82565366D+04 0.12180526D+01  1  2 12  3  5  1        5 0.105663764892D+02
-.343145815548D-03 0.000000000000D+00 -.513338368557D-03 0.113935455116D+00 0.000000000000D+00  5 21 -5 -13 13 -5 2 0.90168823D-01 0.82274710D-03 0.12939914D+04 0.77469023D+04 0.77469023D+04 0.12209973D+01  1  2  5  3  5  1        5 -.239671703597D+02
  </mgrwgt>
  </event>
  <event npLO=' -1 ' npNLO=' 0 '>
  5     66 0.13120323E+02 0.45444671E+02 0.75467711E-02 0.11536197E+00
        1 -1    0    0  501    0 0.00000000E+00 0.00000000E+00 0.41124088E+02 0.41124088E+02 0.00000000E+00 0.0000E+00 0.9000E+01
       -1 -1    0    0    0  501 0.00000000E+00 0.00000000E+00 -.47936501E+02 0.47936501E+02 0.00000000E+00 0.0000E+00 0.9000E+01
       23  2    1    2    0    0 0.00000000E+00 0.00000000E+00 -.68124130E+01 0.89060588E+02 0.88799659E+02 0.0000E+00 0.0000E+00
      -13  1    3    3    0    0 -.36809950E+02 -.15677796E+02 0.15900792E+02 0.43053465E+02 0.00000000E+00 0.0000E+00 0.9000E+01
       13  1    3    3    0    0 0.36809950E+02 0.15677796E+02 -.22713205E+02 0.46007123E+02 0.00000000E+00 0.0000E+00 0.9000E+01
#aMCatNLO 1  0  0  1  2 0.67152043D+02 0.00000000D+00  -5  5  0 0.00000000D+00 0.00000000D+00 0.00000000D+00 0.00000000D+00 0.00000000D+00
  <mgrwgt>
 0.2164998649D+03    7    2    0
 0.443998293153481D+02 0.000000000000000D+00 0.000000000000000D+00 0.443998293153481D+02
 0.443998293153481D+02 0.000000000000000D+00 0.000000000000000D+00 -.443998293153481D+02
 0.443998293153481D+02 -.368099496976720D+02 -.156777957397637D+02 0.192504329101750D+02
 0.443998293153481D+02 0.368099496976720D+02 0.156777957397637D+02 -.192504329101750D+02
 0.000000000000000D+00 -.000000000000000D+00 -.000000000000000D+00 0.000000000000000D+00
 0.121206066926411D+03 0.000000000000000D+00 0.000000000000000D+00 0.121206066926411D+03
 0.654333597585039D+02 0.000000000000000D+00 0.000000000000000D+00 -.654333597585039D+02
 0.270085752841998D+02 -.165098111604626D+02 -.929032330433160D+01 0.192504329101750D+02
 0.791026060586171D+02 0.719194940410016D+02 0.267250724025577D+02 -.192504329101750D+02
 0.805282453420980D+02 -.554096828805391D+02 -.174347490982261D+02 0.557727071679072D+02
0.262487936766D-01 0.000000000000D+00 0.000000000000D+00 0.167302122829D+00 0.000000000000D+00  5 1 -1 -13 13 21 0 0.63267827D-02 0.73748462D-02 0.16007657D+04 0.78853794D+04 0.78853794D+04 0.12201761D+01  1  2  2  1  5  1        1 0.301106833749D+03
-.143904596688D-02 0.000000000000D+00 -.100802279184D-03 0.167302122829D+00 0.000000000000D+00  5 1 -1 -13 13 21 2 0.63267827D-02 0.73748462D-02 0.16007657D+04 0.78853794D+04 0.78853794D+04 0.12201761D+01  1  2  3  1  5  1        1 -.273222223111D+02
0.116592725861D-02 0.000000000000D+00 0.000000000000D+00 0.167302122829D+00 0.000000000000D+00  5 1 -1 -13 13 21 2 0.63267827D-02 0.73748462D-02 0.16007657D+04 0.78853794D+04 0.78853794D+04 0.12201761D+01  1  2 15  1  5  1        1 0.199125895893D+02
0.281219096879D-02 0.000000000000D+00 0.000000000000D+00 0.167302122829D+00 0.000000000000D+00  5 1 -1 -13 13 21 2 0.25453288D-01 0.73748462D-02 0.59102722D+04 0.11259583D+05 0.11259583D+05 0.12040271D+01  1  2 12  1  5  1        1 0.785653543466D+01
0.253913472364D-02 0.000000000000D+00 -.111013174990D-01 0.167302122829D+00 0.000000000000D+00  5 1 -1 -13 13 21 2 0.24984353D-01 0.73748462D-02 0.16007657D+04 0.78853794D+04 0.78853794D+04 0.12201761D+01  1  2  5  1  5  1        1 -.437294193408D+02
0.467531383235D-03 0.000000000000D+00 0.000000000000D+00 0.167302122829D+00 0.000000000000D+00  5 21 -1 -13 13 -1 2 0.25453288D-01 0.73748462D-02 0.59102722D+04 0.11259583D+05 0.11259583D+05 0.12040271D+01  1  2 12  3  5  1        1 0.976580468876D+01
0.568432511112D-03 0.000000000000D+00 -.181653789418D-02 0.167302122829D+00 0.000000000000D+00  5 21 -1 -13 13 -1 2 0.24984353D-01 0.73748462D-02 0.16007657D+04 0.78853794D+04 0.78853794D+04 0.12201761D+01  1  2  5  3  5  1        1 -.510902568738D+02
  </mgrwgt>
  </event>
  <event npLO=' -1 ' npNLO=' 0 '>
  5     66 0.13120323E+02 0.44211605E+02 0.75467711E-02 0.11780188E+00
        1 -1    0    0  501    0 0.00000000E+00 0.00000000E+00 0.60041705E+02 0.60041705E+02 0.00000000E+00 0.0000E+00 0.9000E+01
       -1 -1    0    0    0  501 0.00000000E+00 0.00000000E+00 -.34399667E+02 0.34399667E+02 0.00000000E+00 0.0000E+00 0.9000E+01
       23  2    1    2    0    0 0.00000000E+00 0.00000000E+00 0.25642038E+02 0.94441373E+02 0.90893667E+02 0.0000E+00 0.0000E+00
      -13  1    3    3    0    0 -.40273268E+02 0.19094324E+02 0.35926054E+01 0.44715054E+02 0.00000000E+00 0.0000E+00 0.9000E+01
       13  1    3    3    0    0 0.40273268E+02 -.19094324E+02 0.22049433E+02 0.49726319E+02 0.00000000E+00 0.0000E+00 0.9000E+01
#aMCatNLO 1  0  0  1  2 0.26732430D+02 0.00000000D+00  -5  5  0 0.00000000D+00 0.00000000D+00 0.00000000D+00 0.00000000D+00 0.00000000D+00
  <mgrwgt>
 0.2461165174D+03    6    2    0
 0.454468337473389D+02 0.000000000000000D+00 0.000000000000000D+00 0.454468337473389D+02
 0.454468337473389D+02 0.000000000000000D+00 0.000000000000000D+00 -.454468337473389D+02
 0.454468337473389D+02 -.402732675462329D+02 0.190943235580129D+02 -.888174682535551D+01
 0.454468337473389D+02 0.402732675462329D+02 -.190943235580129D+02 0.888174682535551D+01
 0.000000000000000D+00 -.000000000000000D+00 0.000000000000000D+00 -.000000000000000D+00
 0.513876251129313D+02 0.000000000000000D+00 0.000000000000000D+00 0.513876251129313D+02
 0.576094849172311D+02 0.000000000000000D+00 0.000000000000000D+00 -.576094849172311D+02
 0.395801221466402D+02 -.362957094374280D+02 0.130507516606150D+02 -.888174682535551D+01
 0.526393745013575D+02 0.448617370366379D+02 -.260661249762985D+02 0.888174682535551D+01
 0.167776133821647D+02 -.856602759920984D+01 0.130153733156835D+02 -.622185980429979D+01
0.209154069907D-01 0.000000000000D+00 0.000000000000D+00 0.861503095509D+00 0.000000000000D+00  5 1 -1 -13 13 21 0 0.92371855D-02 0.52922565D-02 0.19865293D+04 0.82616588D+04 0.82616588D+04 0.12180241D+01  1  2  2  1  5  1        1 0.234688567389D+03
-.116143144123D-02 0.000000000000D+00 -.803206699974D-04 0.861503095509D+00 0.000000000000D+00  5 1 -1 -13 13 21 2 0.92371855D-02 0.52922565D-02 0.19865293D+04 0.82616588D+04 0.82616588D+04 0.12180241D+01  1  2  3  1  5  1        1 -.212400971377D+02
0.104715769598D-02 0.000000000000D+00 0.000000000000D+00 0.861503095509D+00 0.000000000000D+00  5 1 -1 -13 13 21 2 0.92371855D-02 0.52922565D-02 0.19865293D+04 0.82616588D+04 0.82616588D+04 0.12180241D+01  1  2 15  1  5  1        1 0.174320891329D+02
0.790602972901D-02 0.000000000000D+00 0.000000000000D+00 0.861503095509D+00 0.000000000000D+00  5 1 -1 -13 13 21 2 0.13239907D-01 0.52922565D-02 0.28109445D+04 0.85044356D+04 0.85044356D+04 0.12166931D+01  1  2 12  1  5  1        1 0.821503674207D+02
-.628830053151D-02 0.000000000000D+00 0.000000000000D+00 0.861503095509D+00 0.000000000000D+00  5 1 -1 -13 13 21 2 0.92371855D-02 0.52922565D-02 0.19865293D+04 0.82616588D+04 0.82616588D+04 0.12180241D+01  1  2  4  1  5  1        1 -.104681669037D+03
0.348548892913D-03 0.000000000000D+00 0.000000000000D+00 0.861503095509D+00 0.000000000000D+00  5 21 -1 -13 13 -1 2 0.13239907D-01 0.52922565D-02 0.28109445D+04 0.85044356D+04 0.85044356D+04 0.12166931D+01  1  2 12  3  5  1        1 0.377672596254D+02
  </mgrwgt>
  </event>
  <event npLO=' -1 ' npNLO=' 0 '>
  5     66 0.13120323E+02 0.38019020E+02 0.75467711E-02 0.11859686E+00
        3 -1    0    0  501    0 0.00000000E+00 0.00000000E+00 0.71053202E+03 0.71053202E+03 0.00000000E+00 0.0000E+00 0.9000E+01
       -3 -1    0    0    0  501 0.00000000E+00 0.00000000E+00 -.27336019E+01 0.27336019E+01 0.00000000E+00 0.0000E+00 0.9000E+01
       23  2    1    2    0    0 0.00000000E+00 0.00000000E+00 0.70779842E+03 0.71326562E+03 0.88143331E+02 0.0000E+00 0.0000E+00
      -11  1    3    3    0    0 -.87827935E+01 -.26054752E+02 0.75182173E+02 0.80052150E+02 0.00000000E+00 0.0000E+00 0.9000E+01
       11  1    3    3    0    0 0.87827935E+01 0.26054752E+02 0.63261625E+03 0.63321347E+03 0.00000000E+00 0.0000E+00 0.9000E+01
#aMCatNLO 1  0  0  1  2 0.17699370D+02 0.00000000D+00  -5  5  0 0.00000000D+00 0.00000000D+00 0.00000000D+00 0.00000000D+00 0.00000000D+00
  <mgrwgt>
 0.7618461426D+02    6    2    0
 0.440716654286270D+02 0.000000000000000D+00 0.000000000000000D+00 0.440716654286270D+02
 0.440716654286270D+02 0.000000000000000D+00 0.000000000000000D+00 -.440716654286270D+02
 0.440716654286270D+02 -.878279349099505D+01 -.260547521372934D+02 -.344430562408677D+02
 0.440716654286270D+02 0.878279349099505D+01 0.260547521372934D+02 0.344430562408677D+02
 0.000000000000000D+00 0.000000000000000D+00 0.000000000000000D+00 -.000000000000000D+00
 0.444227054883965D+02 0.000000000000000D+00 0.000000000000000D+00 0.444227054883965D+02
 0.536412041163234D+02 0.000000000000000D+00 0.000000000000000D+00 -.536412041163234D+02
 0.450612217320941D+02 -.100647392631140D+02 -.272560195982998D+02 -.344430562408677D+02
 0.431506214136550D+02 0.752832675695572D+01 0.248792343413842D+02 0.344430562408677D+02
 0.985206645897083D+01 0.253641250615823D+01 0.237678525691567D+01 -.921849862792691D+01
0.216439014969D-01 0.000000000000D+00 0.000000000000D+00 0.184777829783D+00 0.000000000000D+00  5 3 -3 -11 11 21 0 0.10931262D+00 0.42055414D-03 0.75598757D+03 0.77692468D+04 0.77692468D+04 0.12208637D+01  1  2  2  1  5  1        3 0.551954254847D+02
-.877000502909D-03 0.000000000000D+00 -.831182807182D-04 0.184777829783D+00 0.000000000000D+00  5 3 -3 -11 11 21 2 0.10931262D+00 0.42055414D-03 0.75598757D+03 0.77692468D+04 0.77692468D+04 0.12208637D+01  1  2  3  1  5  1        3 -.406960879805D+01
0.694512068033D-03 0.000000000000D+00 0.000000000000D+00 0.184777829783D+00 0.000000000000D+00  5 3 -3 -11 11 21 2 0.10931262D+00 0.42055414D-03 0.75598757D+03 0.77692468D+04 0.77692468D+04 0.12208637D+01  1  2 15  1  5  1        3 0.263986465113D+01
0.928700740367D-02 0.000000000000D+00 0.000000000000D+00 0.184777829783D+00 0.000000000000D+00  5 3 -3 -11 11 21 2 0.13410806D+00 0.42055414D-03 0.85627156D+03 0.77813293D+04 0.77813293D+04 0.12207916D+01  1  2 12  1  5  1        3 0.219302761190D+02
-.190234058421D-02 0.000000000000D+00 0.000000000000D+00 0.184777829783D+00 0.000000000000D+00  5 3 -3 -11 11 21 2 0.10931262D+00 0.42055414D-03 0.75598757D+03 0.77692468D+04 0.77692468D+04 0.12208637D+01  1  2  4  1  5  1        3 -.723086306748D+01
0.270262768304D-03 0.000000000000D+00 0.000000000000D+00 0.184777829783D+00 0.000000000000D+00  5 21 -3 -11 11 -3 2 0.13410806D+00 0.42055414D-03 0.85627156D+03 0.77813293D+04 0.77813293D+04 0.12207916D+01  1  2 12  3  5  1        3 0.771951987496D+01
  </mgrwgt>
  </event>
  <event npLO=' -1 ' npNLO=' 0 '>
  5     66 0.13120323E+02 0.79410852E+02 0.75467711E-02 0.11787074E+00
        3 -1    0    0  501    0 0.00000000E+00 0.00000000E+00 0.11082889E+04 0.11082889E+04 0.00000000E+00 0.0000E+00 0.9000E+01
       -3 -1    0    0    0  501 0.00000000E+00 0.00000000E+00 -.18932264E+01 0.18932264E+01 0.00000000E+00 0.0000E+00 0.9000E+01
       23  2    1    2    0    0 0.00000000E+00 0.00000000E+00 0.11063956E+04 0.11101821E+04 0.91613137E+02 0.0000E+00 0.0000E+00
      -11  1    3    3    0    0 -.15620117E+02 0.22970251E+02 0.11182058E+03 0.11521920E+03 0.00000000E+00 0.0000E+00 0.9000E+01
       11  1    3    3    0    0 0.15620117E+02 -.22970251E+02 0.99457506E+03 0.99496290E+03 0.00000000E+00 0.0000E+00 0.9000E+01
#aMCatNLO 1  0  0  2  1 0.17327314D+02 0.00000000D+00  -5  5  0 0.00000000D+00 0.00000000D+00 0.00000000D+00 0.00000000D+00 0.00000000D+00
  <mgrwgt>
 0.8609058422D+02    6    2    0
 0.458065686993937D+02 0.000000000000000D+00 0.000000000000000D+00 0.458065686993937D+02
 0.458065686993937D+02 0.000000000000000D+00 0.000000000000000D+00 -.458065686993937D+02
 0.458065686993937D+02 -.156201172885882D+02 0.229702512173217D+02 -.364228119578397D+02
 0.458065686993937D+02 0.156201172885882D+02 -.229702512173217D+02 0.364228119578397D+02
 0.000000000000000D+00 -.000000000000000D+00 -.000000000000000D+00 0.000000000000000D+00
 0.544941260257189D+02 0.000000000000000D+00 0.000000000000000D+00 0.544941260257189D+02
 0.472698679352661D+02 0.000000000000000D+00 0.000000000000000D+00 -.472698679352661D+02
 0.468429411290083D+02 -.139404433840282D+02 0.259481009123267D+02 -.364228119578397D+02
 0.450200389794134D+02 0.172667431913086D+02 -.200509914557147D+02 0.364228119578397D+02
 0.990101385256332D+01 -.332629980728044D+01 -.589710945661203D+01 0.722425809045288D+01
0.443456982466D-01 0.000000000000D+00 0.000000000000D+00 0.148860576864D+01 0.000000000000D+00  5 3 -3 -11 11 21 0 0.17050598D+00 0.29126560D-03 0.77162051D+03 0.83929669D+04 0.83929669D+04 0.12172988D+01  1  2  2  2  5  2       -3 0.619933727564D+02
-.171424763412D-02 0.000000000000D+00 -.170299157757D-03 0.148860576864D+01 0.000000000000D+00  5 3 -3 -11 11 21 2 0.17050598D+00 0.29126560D-03 0.77162051D+03 0.83929669D+04 0.83929669D+04 0.12172988D+01  1  2  3  2  5  2       -3 -.439304886765D+01
0.152631028137D-02 0.000000000000D+00 0.000000000000D+00 0.148860576864D+01 0.000000000000D+00  5 3 -3 -11 11 21 2 0.17050598D+00 0.29126560D-03 0.77162051D+03 0.83929669D+04 0.83929669D+04 0.12172988D+01  1  2 15  2  5  2       -3 0.316177538827D+01
0.156018016767D-01 0.000000000000D+00 0.000000000000D+00 0.148860576864D+01 0.000000000000D+00  5 3 -3 -11 11 21 2 0.17050598D+00 0.35757550D-03 0.98242220D+03 0.84388071D+04 0.84388071D+04 0.12170487D+01  1  2 12  2  5  2       -3 0.244470990818D+02
-.717990383356D-02 0.000000000000D+00 0.000000000000D+00 0.148860576864D+01 0.000000000000D+00  5 3 -3 -11 11 21 2 0.17050598D+00 0.29126560D-03 0.77162051D+03 0.83929669D+04 0.83929669D+04 0.12172988D+01  1  2  4  2  5  2       -3 -.148732819979D+02
0.455178089624D-03 0.000000000000D+00 0.000000000000D+00 0.148860576864D+01 0.000000000000D+00  5 3 21 -11 11 3 2 0.17050598D+00 0.35757550D-03 0.98242220D+03 0.84388071D+04 0.84388071D+04 0.12170487D+01  1  2 12  4  5  2       -3 0.157546678621D+02
  </mgrwgt>
  </event>
  <event npLO=' -1 ' npNLO=' 0 '>
  5     66 0.13120323E+02 0.47481221E+02 0.75467711E-02 0.11404642E+00
        1 -1    0    0  501    0 0.00000000E+00 0.00000000E+00 0.53652764E+02 0.53652764E+02 0.00000000E+00 0.0000E+00 0.9000E+01
       -1 -1    0    0    0  501 0.00000000E+00 0.00000000E+00 -.39991477E+02 0.39991477E+02 0.00000000E+00 0.0000E+00 0.9000E+01
       23  2    1    2    0    0 0.00000000E+00 0.00000000E+00 0.13661287E+02 0.93644242E+02 0.92642394E+02 0.0000E+00 0.0000E+00
      -13  1    3    3    0    0 -.29332045E+02 0.18315689E+02 0.37983075E+02 0.51366792E+02 0.00000000E+00 0.0000E+00 0.9000E+01
       13  1    3    3    0    0 0.29332045E+02 -.18315689E+02 -.24321788E+02 0.42277449E+02 0.00000000E+00 0.0000E+00 0.9000E+01
#aMCatNLO 1  0  0  1  2 0.74928745D+02 0.00000000D+00  -5  5  0 0.00000000D+00 0.00000000D+00 0.00000000D+00 0.00000000D+00 0.00000000D+00
  <mgrwgt>
 0.2102371570D+03    7    2    0
 0.463211972356348D+02 0.000000000000000D+00 0.000000000000000D+00 0.463211972356348D+02
 0.463211972356348D+02 0.000000000000000D+00 0.000000000000000D+00 -.463211972356348D+02
 0.463211972356348D+02 -.293320454596841D+02 0.183156891184514D+02 0.308191491545410D+02
 0.463211972356348D+02 0.293320454596841D+02 -.183156891184514D+02 -.308191491545410D+02
 0.000000000000000D+00 0.000000000000000D+00 -.000000000000000D+00 0.000000000000000D+00
 0.170873354365557D+03 0.000000000000000D+00 0.000000000000000D+00 0.170873354365557D+03
 0.674619418161555D+02 0.000000000000000D+00 0.000000000000000D+00 -.674619418161555D+02
 0.799973265334393D+02 -.703706056129289D+02 0.223098669551725D+02 0.308191491545410D+02
 0.347410426677251D+02 0.299641780057398D+01 -.157525100030203D+02 -.308191491545410D+02
 0.123596926980548D+03 0.673741878123549D+02 -.655735695215225D+01 0.103411412549402D+03
0.283358749607D-01 0.000000000000D+00 0.000000000000D+00 0.405446082542D+00 0.000000000000D+00  5 1 -1 -13 13 21 0 0.82542715D-02 0.61525350D-02 0.11958334D+04 0.85826133D+04 0.85826133D+04 0.12162736D+01  1  2  2  1  5  1        1 0.298103099937D+03
-.141068265596D-02 0.000000000000D+00 -.108817220856D-03 0.405446082542D+00 0.000000000000D+00  5 1 -1 -13 13 21 2 0.82542715D-02 0.61525350D-02 0.11958334D+04 0.85826133D+04 0.85826133D+04 0.12162736D+01  1  2  3  1  5  1        1 -.252921555945D+02
0.128330164233D-02 0.000000000000D+00 0.000000000000D+00 0.405446082542D+00 0.000000000000D+00  5 1 -1 -13 13 21 2 0.82542715D-02 0.61525350D-02 0.11958334D+04 0.85826133D+04 0.85826133D+04 0.12162736D+01  1  2 15  1  5  1        1 0.199719810992D+02
0.275730476460D-02 0.000000000000D+00 0.000000000000D+00 0.405446082542D+00 0.000000000000D+00  5 1 -1 -13 13 21 2 0.44345788D-01 0.61525350D-02 0.62054962D+04 0.13164893D+05 0.13164893D+05 0.11971422D+01  1  2 12  1  5  1        1 0.497953673031D+01
0.574799835352D-02 0.000000000000D+00 -.141751675074D-01 0.405446082542D+00 0.000000000000D+00  5 1 -1 -13 13 21 2 0.42855241D-01 0.61525350D-02 0.11958334D+04 0.85826133D+04 0.85826133D+04 0.12162736D+01  1  2  5  1  5  1        1 -.424247424257D+02
0.566923379735D-03 0.000000000000D+00 0.000000000000D+00 0.405446082542D+00 0.000000000000D+00  5 21 -1 -13 13 -1 2 0.44345788D-01 0.61525350D-02 0.62054962D+04 0.13164893D+05 0.13164893D+05 0.11971422D+01  1  2 12  3  5  1        1 0.522703394659D+01
0.651094783296D-03 0.000000000000D+00 -.285121703806D-02 0.405446082542D+00 0.000000000000D+00  5 21 -1 -13 13 -1 2 0.42855241D-01 0.61525350D-02 0.11958334D+04 0.85826133D+04 0.85826133D+04 0.12162736D+01  1  2  5  3  5  1        1 -.503275967066D+02
  </mgrwgt>
  </event>
  <event npLO=' -1 ' npNLO=' 0 '>
  5     66 0.13120323E+02 0.43274856E+02 0.75467711E-02 0.11803070E+00
        3 -1    0    0  501    0 0.00000000E+00 0.00000000E+00 0.24681566E+02 0.24681566E+02 0.00000000E+00 0.0000E+00 0.9000E+01
       -3 -1    0    0    0  501 0.00000000E+00 0.00000000E+00 -.83914068E+02 0.83914068E+02 0.00000000E+00 0.0000E+00 0.9000E+01
       23  2    1    2    0    0 0.00000000E+00 0.00000000E+00 -.59232503E+02 0.10859563E+03 0.91019351E+02 0.0000E+00 0.0000E+00
      -13  1    3    3    0    0 0.11781462E+02 -.39583008E+02 -.52426508E+02 0.66739464E+02 0.00000000E+00 0.0000E+00 0.9000E+01
       13  1    3    3    0    0 -.11781462E+02 0.39583008E+02 -.68059942E+01 0.41856169E+02 0.00000000E+00 0.0000E+00 0.9000E+01
#aMCatNLO 1  0  0  2  1 0.12911566D+02 0.00000000D+00  -5  5  0 0.00000000D+00 0.00000000D+00 0.00000000D+00 0.00000000D+00 0.00000000D+00
  <mgrwgt>
 0.2507662972D+03    6    2    0
 0.455096755726032D+02 0.000000000000000D+00 0.000000000000000D+00 0.455096755726032D+02
 0.455096755726032D+02 0.000000000000000D+00 0.000000000000000D+00 -.455096755726032D+02
 0.455096755726032D+02 0.117814615980179D+02 -.395830077526688D+02 -.191184003146233D+02
 0.455096755726032D+02 -.117814615980179D+02 0.395830077526688D+02 0.191184003146233D+02
 0.000000000000000D+00 0.000000000000000D+00 0.000000000000000D+00 0.000000000000000D+00
 0.523473156495607D+02 0.000000000000000D+00 0.000000000000000D+00 0.523473156495607D+02
 0.456704373595635D+02 0.000000000000000D+00 0.000000000000000D+00 -.456704373595635D+02
 0.463005739555107D+02 0.115147000010874D+02 -.405665083770404D+02 -.191184003146233D+02
 0.447412064171288D+02 -.120436923350837D+02 0.386162115698548D+02 0.191184003146233D+02
 0.697597263648458D+01 0.528992333996308D+00 0.195029680718560D+01 0.667687828999724D+01
0.225678723091D-01 0.000000000000D+00 0.000000000000D+00 0.108524583168D+01 0.000000000000D+00  5 3 -3 -13 13 21 0 0.37971639D-02 0.12909857D-01 0.17056173D+04 0.82845223D+04 0.82845223D+04 0.12178969D+01  1  2  2  2  5  2       -3 0.154101526406D+03
-.123940280275D-02 0.000000000000D+00 -.866665719241D-04 0.108524583168D+01 0.000000000000D+00  5 3 -3 -13 13 21 2 0.37971639D-02 0.12909857D-01 0.17056173D+04 0.82845223D+04 0.82845223D+04 0.12178969D+01  1  2  3  2  5  2       -3 -.139403745335D+02
0.124056392869D-02 0.000000000000D+00 0.000000000000D+00 0.108524583168D+01 0.000000000000D+00  5 3 -3 -13 13 21 2 0.37971639D-02 0.12909857D-01 0.17056173D+04 0.82845223D+04 0.82845223D+04 0.12178969D+01  1  2 15  2  5  2       -3 0.125648264808D+02
0.106483950836D-01 0.000000000000D+00 0.000000000000D+00 0.108524583168D+01 0.000000000000D+00  5 3 -3 -13 13 21 2 0.37971639D-02 0.14901965D-01 0.17910064D+04 0.82886058D+04 0.82886058D+04 0.12178742D+01  1  2 12  2  5  2       -3 0.851922190840D+02
-.170764915808D-02 0.000000000000D+00 0.000000000000D+00 0.108524583168D+01 0.000000000000D+00  5 3 -3 -13 13 21 2 0.37971639D-02 0.12909857D-01 0.17056173D+04 0.82845223D+04 0.82845223D+04 0.12178969D+01  1  2  4  2  5  2       -3 -.172956144097D+02
0.234312883466D-03 0.000000000000D+00 0.000000000000D+00 0.108524583168D+01 0.000000000000D+00  5 3 21 -13 13 3 2 0.37971639D-02 0.14901965D-01 0.17910064D+04 0.82886058D+04 0.82886058D+04 0.12178742D+01  1  2 12  4  5  2       -3 0.301437141755D+02
  </mgrwgt>
  </event>
  <event npLO=' -1 ' npNLO=' 0 '>
  5     66 0.13120323E+02 0.33764729E+02 0.75467711E-02 0.11810200E+00
        5 -1    0    0  501    0 0.00000000E+00 0.00000000E+00 0.10683816E+03 0.10683816E+03 0.00000000E+00 0.0000E+00 0.9000E+01
       -5 -1    0    0    0  501 0.00000000E+00 0.00000000E+00 -.19199395E+02 0.19199395E+02 0.00000000E+00 0.0000E+00 0.9000E+01
       23  2    1    2    0    0 0.00000000E+00 0.00000000E+00 0.87638769E+02 0.12603756E+03 0.90580972E+02 0.0000E+00 0.0000E+00
      -13  1    3    3    0    0 0.17132064E+02 0.21424117E+02 -.63249720E+01 0.28151477E+02 0.00000000E+00 0.0000E+00 0.9000E+01
       13  1    3    3    0    0 -.17132064E+02 -.21424117E+02 0.93963741E+02 0.97886082E+02 0.00000000E+00 0.0000E+00 0.9000E+01
#aMCatNLO 1  0  0  1  2 0.10930740D+02 0.00000000D+00  -5  5  0 0.00000000D+00 0.00000000D+00 0.00000000D+00 0.00000000D+00 0.00000000D+00
  <mgrwgt>
 0.5864757081D+02    6    2    0
 0.452904862060176D+02 0.000000000000000D+00 0.000000000000000D+00 0.452904862060176D+02
 0.452904862060176D+02 0.000000000000000D+00 0.000000000000000D+00 -.452904862060176D+02
 0.452904862060176D+02 0.171320636242791D+02 0.214241174878298D+02 -.360378651784313D+02
 0.452904862060176D+02 -.171320636242791D+02 -.214241174878298D+02 0.360378651784313D+02
 0.000000000000000D+00 0.000000000000000D+00 -.000000000000000D+00 -.000000000000000D+00
 0.461795869311222D+02 0.000000000000000D+00 0.000000000000000D+00 0.461795869311222D+02
 0.506195421110359D+02 0.000000000000000D+00 0.000000000000000D+00 -.506195421110359D+02
 0.455192756842359D+02 0.156861262597880D+02 0.229613191075920D+02 -.360378651784313D+02
 0.451595915645847D+02 -.185722738433930D+02 -.198930044977460D+02 0.360378651784313D+02
 0.612026179333741D+01 0.288614758360499D+01 -.306831460984598D+01 -.443995517991369D+01
0.190200543215D-01 0.000000000000D+00 0.000000000000D+00 0.125132755897D+01 0.000000000000D+00  5 5 -5 -13 13 21 0 0.16436641D-01 0.29537531D-02 0.75250041D+03 0.82049126D+04 0.82049126D+04 0.12183415D+01  1  2  2  1  5  1        5 0.294313764822D+02
-.733684308876D-03 0.000000000000D+00 -.730420166900D-04 0.125132755897D+01 0.000000000000D+00  5 5 -5 -13 13 21 2 0.16436641D-01 0.29537531D-02 0.75250041D+03 0.82049126D+04 0.82049126D+04 0.12183415D+01  1  2  3  1  5  1        5 -.208599208239D+01
0.713854844881D-03 0.000000000000D+00 0.000000000000D+00 0.125132755897D+01 0.000000000000D+00  5 5 -5 -13 13 21 2 0.16436641D-01 0.29537531D-02 0.75250041D+03 0.82049126D+04 0.82049126D+04 0.12183415D+01  1  2 15  1  5  1        5 0.163963354555D+01
0.139070356200D-01 0.000000000000D+00 0.000000000000D+00 0.125132755897D+01 0.000000000000D+00  5 5 -5 -13 13 21 2 0.18731275D-01 0.29537531D-02 0.87720672D+03 0.82226570D+04 0.82226570D+04 0.12182420D+01  1  2 12  1  5  1        5 0.251701981337D+02
-.630484148991D-02 0.000000000000D+00 0.000000000000D+00 0.125132755897D+01 0.000000000000D+00  5 5 -5 -13 13 21 2 0.16436641D-01 0.29537531D-02 0.75250041D+03 0.82049126D+04 0.82049126D+04 0.12183415D+01  1  2  4  1  5  1        5 -.144814168880D+02
0.283343123477D-03 0.000000000000D+00 0.000000000000D+00 0.125132755897D+01 0.000000000000D+00  5 21 -5 -13 13 -5 2 0.18731275D-01 0.29537531D-02 0.87720672D+03 0.82226570D+04 0.82226570D+04 0.12182420D+01  1  2 12  3  5  1        5 0.189737716220D+02
  </mgrwgt>
  </event>
  <event npLO=' -1 ' npNLO=' 0 '>
  5     66 0.13120323E+02 0.64599466E+02 0.75467711E-02 0.11800844E+00
        1 -1    0    0  501    0 0.00000000E+00 0.00000000E+00 0.83865042E+02 0.83865042E+02 0.00000000E+00 0.0000E+00 0.9000E+01
       -1 -1    0    0    0  501 0.00000000E+00 0.00000000E+00 -.24680983E+02 0.24680983E+02 0.00000000E+00 0.0000E+00 0.9000E+01
       23  2    1    2    0    0 0.00000000E+00 0.00000000E+00 0.59184059E+02 0.10854602E+03 0.90991685E+02 0.0000E+00 0.0000E+00
      -13  1    3    3    0    0 -.35797833E+02 0.23106116E+02 0.10561486E+02 0.43896724E+02 0.00000000E+00 0.0000E+00 0.9000E+01
       13  1    3    3    0    0 0.35797833E+02 -.23106116E+02 0.48622573E+02 0.64649300E+02 0.00000000E+00 0.0000E+00 0.9000E+01
#aMCatNLO 1  0  0  2  1 0.99162153D+01 0.00000000D+00  -5  5  0 0.00000000D+00 0.00000000D+00 0.00000000D+00 0.00000000D+00 0.00000000D+00
  <mgrwgt>
 0.3291184983D+03    8    2    0
 0.454958422607201D+02 0.000000000000000D+00 0.000000000000000D+00 0.454958422607201D+02
 0.454958422607201D+02 0.000000000000000D+00 0.000000000000000D+00 -.454958422607201D+02
 0.454958422607201D+02 -.357978329550132D+02 0.231061158384628D+02 -.159528752767904D+02
 0.454958422607201D+02 0.357978329550132D+02 -.231061158384628D+02 0.159528752767904D+02
 0.000000000000000D+00 0.000000000000000D+00 0.000000000000000D+00 0.000000000000000D+00
 0.498231628724465D+02 0.000000000000000D+00 0.000000000000000D+00 0.498231628724465D+02
 0.473348076511598D+02 0.000000000000000D+00 0.000000000000000D+00 -.473348076511598D+02
 0.451155011675623D+02 -.368345970997696D+02 0.205943359325112D+02 -.159528752767904D+02
 0.460399947796501D+02 0.347504908650151D+02 -.256435230487911D+02 0.159528752767904D+02
 0.600247457639391D+01 0.208410623475459D+01 0.504918711627996D+01 0.248835522128671D+01
0.203093253739D-01 0.000000000000D+00 0.000000000000D+00 0.101106921502D+01 0.000000000000D+00  5 1 -1 -13 13 21 0 0.12902314D-01 0.37970743D-02 0.18153774D+04 0.82794867D+04 0.82794867D+04 0.12179248D+01  1  2  2  2  5  2       -1 0.236331694756D+03
-.112239292988D-02 0.000000000000D+00 -.779931570039D-04 0.101106921502D+01 0.000000000000D+00  5 1 -1 -13 13 21 2 0.12902314D-01 0.37970743D-02 0.18153774D+04 0.82794867D+04 0.82794867D+04 0.12179248D+01  1  2  3  2  5  2       -1 -.214166004727D+02
0.112779156602D-02 0.000000000000D+00 0.000000000000D+00 0.101106921502D+01 0.000000000000D+00  5 1 -1 -13 13 21 2 0.12902314D-01 0.37970743D-02 0.18153774D+04 0.82794867D+04 0.82794867D+04 0.12179248D+01  1  2 15  2  5  2       -1 0.194668773223D+02
0.146625870109D-01 0.000000000000D+00 0.000000000000D+00 0.101106921502D+01 0.000000000000D+00  5 1 -1 -13 13 21 2 0.12902314D-01 0.43263095D-02 0.20634800D+04 0.83093244D+04 0.83093244D+04 0.12177593D+01  1  2 12  2  5  2       -1 0.210183796307D+03
-.106996371229D-01 0.000000000000D+00 0.000000000000D+00 0.101106921502D+01 0.000000000000D+00  5 1 -1 -13 13 21 2 0.12902314D-01 0.37970743D-02 0.18153774D+04 0.82794867D+04 0.82794867D+04 0.12179248D+01  1  2  4  2  5  2       -1 -.184687072984D+03
0.673369964430D-10 0.000000000000D+00 0.000000000000D+00 0.101106921502D+01 0.269071479837D+00  5 1 -1 -13 13 21 2 0.14129513D-01 0.39505540D-02 0.20634800D+04 0.83093244D+04 0.83093244D+04 0.12177593D+01  1  2 11  2  5  2       -1 0.977008756045D-06
0.298362212111D-03 0.000000000000D+00 0.000000000000D+00 0.101106921502D+01 0.000000000000D+00  5 1 21 -13 13 1 2 0.12902314D-01 0.43263095D-02 0.20634800D+04 0.83093244D+04 0.83093244D+04 0.12177593D+01  1  2 12  4  5  2       -1 0.692398018996D+02
0.221596218708D-11 0.000000000000D+00 0.000000000000D+00 0.101106921502D+01 0.197740753375D-02  5 1 21 -13 13 1 2 0.14129513D-01 0.39505540D-02 0.20634800D+04 0.83093244D+04 0.83093244D+04 0.12177593D+01  1  2 11  4  5  2       -1 0.527639000394D-06
  </mgrwgt>
  </event>
  <event npLO=' -1 ' npNLO=' 0 '>
  5     66 0.13120323E+02 0.91554307E+02 0.75467711E-02 0.11152699E+00
        1 -1    0    0  501    0 0.00000000E+00 0.00000000E+00 0.20077477E+02 0.20077477E+02 0.00000000E+00 0.0000E+00 0.9000E+01
       -1 -1    0    0    0  501 0.00000000E+00 0.00000000E+00 -.10437307E+03 0.10437307E+03 0.00000000E+00 0.0000E+00 0.9000E+01
       23  2    1    2    0    0 0.00000000E+00 0.00000000E+00 -.84295590E+02 0.12445054E+03 0.91554307E+02 0.0000E+00 0.0000E+00
      -13  1    3    3    0    0 0.36641487E+02 -.12517832E+02 -.75339788E+02 0.84707605E+02 0.00000000E+00 0.0000E+00 0.9000E+01
       13  1    3    3    0    0 -.36641487E+02 0.12517832E+02 -.89558012E+01 0.39742937E+02 0.00000000E+00 0.0000E+00 0.9000E+01
#aMCatNLO 1  0  0  2  1 0.17619550D+03 0.00000000D+00  -5  5  0 0.00000000D+00 0.00000000D+00 0.00000000D+00 0.00000000D+00 0.00000000D+00
  <mgrwgt>
 0.2900149187D+03    3    2    0
 0.457771536631355D+02 0.000000000000000D+00 0.000000000000000D+00 0.457771536631355D+02
 0.457771536631355D+02 0.000000000000000D+00 0.000000000000000D+00 -.457771536631355D+02
 0.457771536631355D+02 0.366414873197032D+02 -.125178315933717D+02 -.244182943036229D+02
 0.457771536631355D+02 -.366414873197032D+02 0.125178315933717D+02 0.244182943036229D+02
 0.000000000000000D+00 0.000000000000000D+00 0.000000000000000D+00 0.000000000000000D+00
 0.165776012565803D+03 0.000000000000000D+00 0.000000000000000D+00 0.165776012565803D+03
 0.912074813391160D+02 0.000000000000000D+00 0.000000000000000D+00 -.912074813391160D+02
 0.278766398741771D+02 0.469600681977613D+01 -.126016456831968D+02 -.244182943036229D+02
 0.106105197702025D+03 -.102516637271902D+03 0.123449975758853D+02 0.244182943036229D+02
 0.123001656328717D+03 0.978206304521263D+02 0.256648107311530D+00 0.745685312266872D+02
0.306874519588D-01 0.000000000000D+00 0.000000000000D+00 0.116976403121D+01 0.000000000000D+00  5 1 -1 -13 13 21 0 0.30888426D-02 0.16057395D-01 0.14992947D+04 0.83821912D+04 0.83821912D+04 0.12173579D+01  1  2  2  2  5  2       -1 0.295852638867D+03
-.164676419395D-02 0.000000000000D+00 -.117847895713D-03 0.116976403121D+01 0.000000000000D+00  5 1 -1 -13 13 21 2 0.30888426D-02 0.16057395D-01 0.14992947D+04 0.83821912D+04 0.83821912D+04 0.12173579D+01  1  2  3  2  5  2       -1 -.264257637072D+02
0.144099979780D-02 0.000000000000D+00 0.000000000000D+00 0.116976403121D+01 0.000000000000D+00  5 1 -1 -13 13 21 2 0.30888426D-02 0.16057395D-01 0.14992947D+04 0.83821912D+04 0.83821912D+04 0.12173579D+01  1  2 15  2  5  2       -1 0.205880435055D+02
  </mgrwgt>
  </event>
  <event npLO=' -1 ' npNLO=' 0 '>
  5     66 0.13120323E+02 0.68180030E+02 0.75467711E-02 0.11764988E+00
        5 -1    0    0  501    0 0.00000000E+00 0.00000000E+00 0.92234725E+02 0.92234725E+02 0.00000000E+00 0.0000E+00 0.9000E+01
       -5 -1    0    0    0  501 0.00000000E+00 0.00000000E+00 -.23447520E+02 0.23447520E+02 0.00000000E+00 0.0000E+00 0.9000E+01
       23  2    1    2    0    0 0.00000000E+00 0.00000000E+00 0.68787205E+02 0.11568225E+03 0.93009152E+02 0.0000E+00 0.0000E+00
      -11  1    3    3    0    0 -.26648184E+02 0.17304884E+02 -.78414261E+01 0.32727247E+02 0.00000000E+00 0.0000E+00 0.9000E+01
       11  1    3    3    0    0 0.26648184E+02 -.17304884E+02 0.76628631E+02 0.82954998E+02 0.00000000E+00 0.0000E+00 0.9000E+01
#aMCatNLO 1  0  0  2  1 0.69386142D+01 0.00000000D+00  -5  5  0 0.00000000D+00 0.00000000D+00 0.00000000D+00 0.00000000D+00 0.00000000D+00
  <mgrwgt>
 0.9042868118D+02   10    2    0
 0.465045759579359D+02 0.000000000000000D+00 0.000000000000000D+00 0.465045759579359D+02
 0.465045759579359D+02 0.000000000000000D+00 0.000000000000000D+00 -.465045759579359D+02
 0.465045759579359D+02 -.266481842578833D+02 0.173048835377713D+02 -.339571916761311D+02
 0.465045759579359D+02 0.266481842578833D+02 -.173048835377713D+02 0.339571916761311D+02
 0.000000000000000D+00 0.000000000000000D+00 -.000000000000000D+00 0.000000000000000D+00
 0.500780322189370D+02 0.000000000000000D+00 0.000000000000000D+00 0.500780322189370D+02
 0.465561039141168D+02 0.000000000000000D+00 0.000000000000000D+00 -.465561039141168D+02
 0.467912277914095D+02 -.270312975037910D+02 0.174824794282623D+02 -.339571916761311D+02
 0.462217350530844D+02 0.262674095974504D+02 -.171283717214393D+02 0.339571916761311D+02
 0.362117328855975D+01 0.763887906340547D+00 -.354107706823037D+00 0.352192830482022D+01
0.266931792710D-01 0.000000000000D+00 0.000000000000D+00 0.523453630135D+00 0.000000000000D+00  5 5 -5 -11 11 21 0 0.14189958D-01 0.36073108D-02 0.10095847D+04 0.86507023D+04 0.86507023D+04 0.12159116D+01  1  2  2  2  5  2       -5 0.398020685704D+02
-.122135345726D-02 0.000000000000D+00 -.102508836876D-03 0.523453630135D+00 0.000000000000D+00  5 5 -5 -11 11 21 2 0.14189958D-01 0.36073108D-02 0.10095847D+04 0.86507023D+04 0.86507023D+04 0.12159116D+01  1  2  3  2  5  2       -5 -.317789781117D+01
0.135775517896D-02 0.000000000000D+00 0.000000000000D+00 0.523453630135D+00 0.000000000000D+00  5 5 -5 -11 11 21 2 0.14189958D-01 0.36073108D-02 0.10095847D+04 0.86507023D+04 0.86507023D+04 0.12159116D+01  1  2 15  2  5  2       -5 0.299316618893D+01
0.188584601557D-01 0.000000000000D+00 0.000000000000D+00 0.523453630135D+00 0.000000000000D+00  5 5 -5 -11 11 21 2 0.14189958D-01 0.38888041D-02 0.10366005D+04 0.86514113D+04 0.86514113D+04 0.12159079D+01  1  2 12  2  5  2       -5 0.369194046338D+02
-.246540230317D-02 0.000000000000D+00 0.000000000000D+00 0.523453630135D+00 0.000000000000D+00  5 5 -5 -11 11 21 2 0.14189958D-01 0.36073108D-02 0.10095847D+04 0.86507023D+04 0.86507023D+04 0.12159116D+01  1  2  4  2  5  2       -5 -.543497011120D+01
0.233737310237D-02 0.000000000000D+00 0.000000000000D+00 0.523453630135D+00 0.000000000000D+00  5 5 -5 -11 11 21 2 0.14189958D-01 0.38903224D-02 0.10095847D+04 0.86507023D+04 0.86507023D+04 0.12159116D+01  1  2  5  2  5  2       -5 0.457301344034D+01
-.233072190811D-02 0.000000000000D+00 0.000000000000D+00 0.523453630135D+00 0.000000000000D+00  5 5 -5 -11 11 21 2 0.14189958D-01 0.36073108D-02 0.10095847D+04 0.86507023D+04 0.86507023D+04 0.12159116D+01  1  2  6  2  5  2       -5 -.513806768649D+01
0.136795811219D-03 0.000000000000D+00 0.000000000000D+00 0.523453630135D+00 0.584073292121D+01  5 5 -5 -11 11 21 2 0.15280328D-01 0.36113078D-02 0.10366005D+04 0.86514113D+04 0.86514113D+04 0.12159079D+01  1  2 11  2  5  2       -5 0.263766099544D+00
0.272864572736D-03 0.000000000000D+00 0.000000000000D+00 0.523453630135D+00 0.000000000000D+00  5 5 21 -11 11 5 2 0.14189958D-01 0.38888041D-02 0.10366005D+04 0.86514113D+04 0.86514113D+04 0.12159079D+01  1  2 12  4  5  2       -5 0.185426355779D+02
0.162351321085D-04 0.000000000000D+00 0.000000000000D+00 0.523453630135D+00 0.126414295839D-02  5 5 21 -11 11 5 2 0.15280328D-01 0.36113078D-02 0.10366005D+04 0.86514113D+04 0.86514113D+04 0.12159079D+01  1  2 11  4  5  2       -5 0.108556228199D+01
  </mgrwgt>
  </event>
  <event npLO=' -1 ' npNLO=' 0 '>
  5     66 0.13120323E+02 0.55075931E+02 0.75467711E-02 0.11780204E+00
        1 -1    0    0  501    0 0.00000000E+00 0.00000000E+00 0.17554053E+04 0.17554053E+04 0.00000000E+00 0.0000E+00 0.9000E+01
       -1 -1    0    0    0  501 0.00000000E+00 0.00000000E+00 -.12055377E+01 0.12055377E+01 0.00000000E+00 0.0000E+00 0.9000E+01
       23  2    1    2    0    0 0.00000000E+00 0.00000000E+00 0.17541998E+04 0.17566108E+04 0.92004507E+02 0.0000E+00 0.0000E+00
      -13  1    3    3    0    0 0.38958250E+02 -.14867903E+01 0.13433095E+04 0.13438751E+04 0.00000000E+00 0.0000E+00 0.9000E+01
       13  1    3    3    0    0 -.38958250E+02 0.14867903E+01 0.41089029E+03 0.41273573E+03 0.00000000E+00 0.0000E+00 0.9000E+01
#aMCatNLO 1  0  0  2  1 0.11209784D+02 0.00000000D+00  -5  5  0 0.00000000D+00 0.00000000D+00 0.00000000D+00 0.00000000D+00 0.00000000D+00
  <mgrwgt>
 0.6026518876D+03    6    2    0
 0.460022535126681D+02 0.000000000000000D+00 0.000000000000000D+00 0.460022535126681D+02
 0.460022535126681D+02 0.000000000000000D+00 0.000000000000000D+00 -.460022535126681D+02
 0.460022535126681D+02 0.389582503852132D+02 -.148679026940885D+01 0.244182618108171D+02
 0.460022535126681D+02 -.389582503852132D+02 0.148679026940885D+01 -.244182618108171D+02
 0.000000000000000D+00 -.000000000000000D+00 -.000000000000000D+00 0.000000000000000D+00
 0.508800442015723D+02 0.000000000000000D+00 0.000000000000000D+00 0.508800442015723D+02
 0.481770388777798D+02 0.000000000000000D+00 0.000000000000000D+00 -.481770388777798D+02
 0.470686135396150D+02 0.402139859471293D+02 0.142765714515550D+01 0.244182618108171D+02
 0.451500760050228D+02 -.377284002145625D+02 0.434116005781016D+01 -.244182618108171D+02
 0.683839353471430D+01 -.248558573256675D+01 -.576881720296566D+01 0.270300532379246D+01
0.494661235934D-01 0.000000000000D+00 0.000000000000D+00 0.616092845712D+00 0.000000000000D+00  5 1 -1 -13 13 21 0 0.27006235D+00 0.18546734D-03 0.15199558D+04 0.84648293D+04 0.84648293D+04 0.12169073D+01  1  2  2  2  5  2       -1 0.433912479773D+03
-.265662948086D-02 0.000000000000D+00 -.189962939328D-03 0.616092845712D+00 0.000000000000D+00  5 1 -1 -13 13 21 2 0.27006235D+00 0.18546734D-03 0.15199558D+04 0.84648293D+04 0.84648293D+04 0.12169073D+01  1  2  3  2  5  2       -1 -.387471165880D+02
0.234182878652D-02 0.000000000000D+00 0.000000000000D+00 0.616092845712D+00 0.000000000000D+00  5 1 -1 -13 13 21 2 0.27006235D+00 0.18546734D-03 0.15199558D+04 0.84648293D+04 0.84648293D+04 0.12169073D+01  1  2 15  2  5  2       -1 0.304203636249D+02
0.282630714582D-01 0.000000000000D+00 0.000000000000D+00 0.616092845712D+00 0.000000000000D+00  5 1 -1 -13 13 21 2 0.27006235D+00 0.21483094D-03 0.17849850D+04 0.85042867D+04 0.85042867D+04 0.12166939D+01  1  2 12  2  5  2       -1 0.301632004112D+03
-.210600947746D-01 0.000000000000D+00 0.000000000000D+00 0.616092845712D+00 0.000000000000D+00  5 1 -1 -13 13 21 2 0.27006235D+00 0.18546734D-03 0.15199558D+04 0.84648293D+04 0.84648293D+04 0.12169073D+01  1  2  4  2  5  2       -1 -.273570700260D+03
0.634134856808D-03 0.000000000000D+00 0.000000000000D+00 0.616092845712D+00 0.000000000000D+00  5 1 21 -13 13 1 2 0.27006235D+00 0.21483094D-03 0.17849850D+04 0.85042867D+04 0.85042867D+04 0.12166939D+01  1  2 12  4  5  2       -1 0.149004856946D+03
  </mgrwgt>
  </event>
  <event npLO=' -1 ' npNLO=' 0 '>
  6     66 -.13120323E+02 0.89249182E+02 0.75467711E-02 0.11833677E+00
        1 -1    0    0  502    0 0.00000000E+00 0.00000000E+00 0.48272344E+03 0.48272344E+03 0.00000000E+00 0.0000E+00 0.9000E+01
       -1 -1    0    0    0  501 0.00000000E+00 0.00000000E+00 -.51118480E+01 0.51118480E+01 0.00000000E+00 0.0000E+00 0.9000E+01
       23  2    1    2    0    0 -.19477009E+01 0.63676436E+01 0.46539090E+03 0.47391818E+03 0.89249182E+02 0.0000E+00 0.0000E+00
      -13  1    3    3    0    0 0.29634338E+02 0.10054240E+02 0.63708312E+02 0.70979087E+02 0.00000000E+00 0.0000E+00 0.9000E+01
       13  1    3    3    0    0 -.31582039E+02 -.36865966E+01 0.40168259E+03 0.40293910E+03 0.00000000E+00 0.0000E+00 0.9000E+01
       21  1    1    2  502  501 0.19477009E+01 -.63676436E+01 0.12220691E+02 0.13917102E+02 0.00000000E+00 0.0000E+00 0.9000E+01
#aMCatNLO 2  0  0  1  2 0.17779156D+02 0.00000000D+00  -5  5  0 0.00000000D+00 0.00000000D+00 0.00000000D+00 0.00000000D+00 0.00000000D+00
  <mgrwgt>
 -.1106677728D+03    2    2    0
 0.446245910042795D+02 0.000000000000000D+00 0.000000000000000D+00 0.446245910042795D+02
 0.446245910042795D+02 0.000000000000000D+00 0.000000000000000D+00 -.446245910042795D+02
 0.446245910042795D+02 0.306062561910806D+02 0.687673426266764D+01 -.317383321891025D+02
 0.446245910042795D+02 -.306062561910806D+02 -.687673426266764D+01 0.317383321891025D+02
 0.000000000000000D+00 0.000000000000000D+00 -.000000000000000D+00 -.000000000000000D+00
 0.459938253847190D+02 0.000000000000000D+00 0.000000000000000D+00 0.459938253847190D+02
 0.536508723937324D+02 0.000000000000000D+00 0.000000000000000D+00 -.536508723937324D+02
 0.445713298101694D+02 0.296343376041389D+02 0.100542401833750D+02 -.317383321891025D+02
 0.449259154688195D+02 -.315820385017122D+02 -.368659662047048D+01 0.317383321891025D+02
 0.101474524994625D+02 0.194770089757328D+01 -.636764356290447D+01 -.765704700901340D+01
-.116121042578D-01 0.000000000000D+00 0.000000000000D+00 0.376384777385D+00 0.000000000000D+00  5 1 -1 -13 13 21 2 0.89286864D-01 0.65412695D-03 0.12162244D+04 0.80097569D+04 0.80097569D+04 0.12194522D+01  1  2 13  1  5  1        1 -.198037049156D+03
0.514393045895D-02 0.000000000000D+00 0.000000000000D+00 0.376384777385D+00 0.684083751917D-01  5 1 -1 -13 13 21 2 0.74265144D-01 0.78643816D-03 0.12162244D+04 0.80097569D+04 0.80097569D+04 0.12194522D+01  1  2  1  1  5  1        1 0.873692763855D+02
  </mgrwgt>
  </event>
  <event npLO=' -1 ' npNLO=' 0 '>
  5     66 0.13120323E+02 0.57072048E+02 0.75467711E-02 0.11687258E+00
        5 -1    0    0  501    0 0.00000000E+00 0.00000000E+00 0.80080126E+02 0.80080126E+02 0.00000000E+00 0.0000E+00 0.9000E+01
       -5 -1    0    0    0  501 0.00000000E+00 0.00000000E+00 -.28570911E+02 0.28570911E+02 0.00000000E+00 0.0000E+00 0.9000E+01
       23  2    1    2    0    0 0.00000000E+00 0.00000000E+00 0.51509215E+02 0.10865104E+03 0.95665295E+02 0.0000E+00 0.0000E+00
      -11  1    3    3    0    0 0.47268890E+02 -.45447503E+01 0.32274938E+02 0.57416673E+02 0.00000000E+00 0.0000E+00 0.9000E+01
       11  1    3    3    0    0 -.47268890E+02 0.45447503E+01 0.19234276E+02 0.51234364E+02 0.00000000E+00 0.0000E+00 0.9000E+01
#aMCatNLO 1  0  0  1  2 0.21569578D+02 0.00000000D+00  -5  5  0 0.00000000D+00 0.00000000D+00 0.00000000D+00 0.00000000D+00 0.00000000D+00
  <mgrwgt>
 0.2831129040D+02    9    2    0
 0.478326473704542D+02 0.000000000000000D+00 0.000000000000000D+00 0.478326473704542D+02
 0.478326473704542D+02 0.000000000000000D+00 0.000000000000000D+00 -.478326473704542D+02
 0.478326473704542D+02 0.472688895411718D+02 -.454475029473366D+01 0.574103481693316D+01
 0.478326473704542D+02 -.472688895411718D+02 0.454475029473366D+01 -.574103481693316D+01
 0.000000000000000D+00 0.000000000000000D+00 -.000000000000000D+00 0.000000000000000D+00
 0.607994830449780D+02 0.000000000000000D+00 0.000000000000000D+00 0.607994830449780D+02
 0.547300783572842D+02 0.000000000000000D+00 0.000000000000000D+00 -.547300783572842D+02
 0.412150984477198D+02 0.408130421199267D+02 0.143011199154831D+00 0.574103481693316D+01
 0.559985074457114D+02 -.547965151638749D+02 0.100107582766432D+02 -.574103481693316D+01
 0.183159555088309D+02 0.139834730439482D+02 -.101537694757981D+02 0.606940468769386D+01
0.266339830197D-01 0.000000000000D+00 0.000000000000D+00 0.631187047491D-01 0.000000000000D+00  5 5 -5 -11 11 21 0 0.12320019D-01 0.43955248D-02 0.22550027D+04 0.91518486D+04 0.91518486D+04 0.12133421D+01  1  2  2  1  5  1        5 0.377217575486D+02
-.147957102498D-02 0.000000000000D+00 -.102281507684D-03 0.631187047491D-01 0.000000000000D+00  5 5 -5 -11 11 21 2 0.12320019D-01 0.43955248D-02 0.22550027D+04 0.91518486D+04 0.91518486D+04 0.12133421D+01  1  2  3  1  5  1        5 -.338376356141D+01
0.134454248475D-02 0.000000000000D+00 0.000000000000D+00 0.631187047491D-01 0.000000000000D+00  5 5 -5 -11 11 21 2 0.12320019D-01 0.43955248D-02 0.22550027D+04 0.91518486D+04 0.91518486D+04 0.12133421D+01  1  2 15  1  5  1        5 0.280347600137D+01
0.188195890912D-01 0.000000000000D+00 0.000000000000D+00 0.631187047491D-01 0.000000000000D+00  5 5 -5 -11 11 21 2 0.17917958D-01 0.43955248D-02 0.32374870D+04 0.94504852D+04 0.94504852D+04 0.12118845D+01  1  2 12  1  5  1        5 0.201654637460D+02
-.197947093483D-01 0.000000000000D+00 0.000000000000D+00 0.631187047491D-01 0.000000000000D+00  5 5 -5 -11 11 21 2 0.12320019D-01 0.43955248D-02 0.22550027D+04 0.91518486D+04 0.91518486D+04 0.12133421D+01  1  2  4  1  5  1        5 -.412735136611D+02
-.359134576196D-01 0.000000000000D+00 -.137808601126D-01 0.631187047491D-01 0.000000000000D+00  5 5 -5 -11 11 21 2 0.17820376D-01 0.43955248D-02 0.22550027D+04 0.91518486D+04 0.91518486D+04 0.12133421D+01  1  2  5  1  5  1        5 -.594826680558D+02
0.391884054983D-01 0.000000000000D+00 0.128925544330D-01 0.631187047491D-01 0.000000000000D+00  5 5 -5 -11 11 21 2 0.12320019D-01 0.43955248D-02 0.22550027D+04 0.91518486D+04 0.91518486D+04 0.12133421D+01  1  2  6  1  5  1        5 0.119367291262D+03
0.853897387719D-03 0.000000000000D+00 0.000000000000D+00 0.631187047491D-01 0.000000000000D+00  5 21 -5 -11 11 -5 2 0.17917958D-01 0.43955248D-02 0.32374870D+04 0.94504852D+04 0.94504852D+04 0.12118845D+01  1  2 12  3  5  1        5 0.333045103534D+02
-.119151042859D-02 0.000000000000D+00 -.618650229127D-03 0.631187047491D-01 0.000000000000D+00  5 21 -5 -11 11 -5 2 0.17820376D-01 0.43955248D-02 0.22550027D+04 0.91518486D+04 0.91518486D+04 0.12133421D+01  1  2  5  3  5  1        5 -.809112632377D+02
  </mgrwgt>
  </event>
  <event npLO=' -1 ' npNLO=' 0 '>
  5     66 0.13120323E+02 0.90505368E+02 0.75467711E-02 0.11548425E+00
        1 -1    0    0  501    0 0.00000000E+00 0.00000000E+00 0.11517526E+04 0.11517526E+04 0.00000000E+00 0.0000E+00 0.9000E+01
       -1 -1    0    0    0  501 0.00000000E+00 0.00000000E+00 -.17779907E+01 0.17779907E+01 0.00000000E+00 0.0000E+00 0.9000E+01
       23  2    1    2    0    0 0.00000000E+00 0.00000000E+00 0.11499746E+04 0.11535306E+04 0.90505368E+02 0.0000E+00 0.0000E+00
      -11  1    3    3    0    0 -.45137165E+02 0.14102509E+01 0.61204327E+03 0.61370703E+03 0.00000000E+00 0.0000E+00 0.9000E+01
       11  1    3    3    0    0 0.45137165E+02 -.14102509E+01 0.53793131E+03 0.53982353E+03 0.00000000E+00 0.0000E+00 0.9000E+01
#aMCatNLO 1  0  0  2  2 0.10653253D+03 0.00000000D+00  -5  5  0 0.00000000D+00 0.00000000D+00 0.00000000D+00 0.00000000D+00 0.00000000D+00
  <mgrwgt>
 0.5465405756D+03    3    2    0
 0.452526838318042D+02 0.000000000000000D+00 0.000000000000000D+00 0.452526838318042D+02
 0.452526838318042D+02 0.000000000000000D+00 0.000000000000000D+00 -.452526838318042D+02
 0.452526838318042D+02 -.451371649523591D+02 0.141025088369792D+01 0.290739169871989D+01
 0.452526838318042D+02 0.451371649523591D+02 -.141025088369792D+01 -.290739169871989D+01
 0.000000000000000D+00 0.000000000000000D+00 -.000000000000000D+00 0.000000000000000D+00
 0.113584391516699D+03 0.000000000000000D+00 0.000000000000000D+00 0.113584391516699D+03
 0.646121743094088D+02 0.000000000000000D+00 0.000000000000000D+00 -.646121743094088D+02
 0.618684993793666D+02 -.543424481706587D+02 0.294305388293211D+02 0.290739169871989D+01
 0.434841470531839D+02 0.375117109039251D+02 0.218011390416529D+02 -.290739169871989D+01
 0.728439193935572D+02 0.168307372667336D+02 -.512316778709740D+02 0.489722172072900D+02
0.425419388963D-01 0.000000000000D+00 0.000000000000D+00 0.600054344109D+00 0.000000000000D+00  5 1 -1 -11 11 21 0 0.17719270D+00 0.27353704D-03 0.20393525D+04 0.81912216D+04 0.81912216D+04 0.12184184D+01  1  2  2  2  5  2       -1 0.549480468098D+03
-.236342875846D-02 0.000000000000D+00 -.163372246911D-03 0.600054344109D+00 0.000000000000D+00  5 1 -1 -11 11 21 2 0.17719270D+00 0.27353704D-03 0.20393525D+04 0.81912216D+04 0.81912216D+04 0.12184184D+01  1  2  3  2  5  2       -1 -.496736425299D+02
0.243726487318D-02 0.000000000000D+00 0.000000000000D+00 0.600054344109D+00 0.000000000000D+00  5 1 -1 -11 11 21 2 0.17719270D+00 0.27353704D-03 0.20393525D+04 0.81912216D+04 0.81912216D+04 0.12184184D+01  1  2 15  2  5  2       -1 0.467337500190D+02
  </mgrwgt>
  </event>
  <event npLO=' -1 ' npNLO=' 0 '>
  5     66 0.13120323E+02 0.42673603E+02 0.75467711E-02 0.11794639E+00
        1 -1    0    0  501    0 0.00000000E+00 0.00000000E+00 0.17069488E+03 0.17069488E+03 0.00000000E+00 0.0000E+00 0.9000E+01
       -1 -1    0    0    0  501 0.00000000E+00 0.00000000E+00 -.12251170E+02 0.12251170E+02 0.00000000E+00 0.0000E+00 0.9000E+01
       23  2    1    2    0    0 0.00000000E+00 0.00000000E+00 0.15844371E+03 0.18294605E+03 0.91459542E+02 0.0000E+00 0.0000E+00
      -13  1    3    3    0    0 -.21640554E+02 -.27916976E+02 0.13731797E+03 0.14178821E+03 0.00000000E+00 0.0000E+00 0.9000E+01
       13  1    3    3    0    0 0.21640554E+02 0.27916976E+02 0.21125743E+02 0.41157844E+02 0.00000000E+00 0.0000E+00 0.9000E+01
#aMCatNLO 1  0  0  1  2 0.22031382D+02 0.00000000D+00  -5  5  0 0.00000000D+00 0.00000000D+00 0.00000000D+00 0.00000000D+00 0.00000000D+00
  <mgrwgt>
 0.4657445864D+03    6    2    0
 0.457297709567706D+02 0.000000000000000D+00 0.000000000000000D+00 0.457297709567706D+02
 0.457297709567706D+02 0.000000000000000D+00 0.000000000000000D+00 -.457297709567706D+02
 0.457297709567706D+02 -.216405541529996D+02 -.279169756721781D+02 0.290437744969350D+02
 0.457297709567706D+02 0.216405541529996D+02 0.279169756721781D+02 -.290437744969350D+02
 0.000000000000000D+00 0.000000000000000D+00 0.000000000000000D+00 -.000000000000000D+00
 0.457879041489345D+02 0.000000000000000D+00 0.000000000000000D+00 0.457879041489345D+02
 0.581144371327620D+02 0.000000000000000D+00 0.000000000000000D+00 -.581144371327620D+02
 0.462913818425108D+02 -.218099207694424D+02 -.286998005548988D+02 0.290437744969350D+02
 0.451820184724834D+02 0.214732293401494D+02 0.271435881549284D+02 -.290437744969350D+02
 0.124289409667022D+02 0.336691429293008D+00 0.155621239997041D+01 -.123265329838275D+02
0.258635738597D-01 0.000000000000D+00 0.000000000000D+00 0.904314669041D+00 0.000000000000D+00  5 1 -1 -13 13 21 0 0.26260751D-01 0.18847954D-02 0.12476711D+04 0.83648478D+04 0.83648478D+04 0.12174531D+01  1  2  2  1  5  1        1 0.328673886697D+03
-.132036695005D-02 0.000000000000D+00 -.993229336565D-04 0.904314669041D+00 0.000000000000D+00  5 1 -1 -13 13 21 2 0.26260751D-01 0.18847954D-02 0.12476711D+04 0.83648478D+04 0.83648478D+04 0.12174531D+01  1  2  3  1  5  1        1 -.284297083754D+02
0.123605929536D-02 0.000000000000D+00 0.000000000000D+00 0.904314669041D+00 0.000000000000D+00  5 1 -1 -13 13 21 2 0.26260751D-01 0.18847954D-02 0.12476711D+04 0.83648478D+04 0.83648478D+04 0.12174531D+01  1  2 15  1  5  1        1 0.232820076352D+02
0.917135814818D-02 0.000000000000D+00 0.000000000000D+00 0.904314669041D+00 0.000000000000D+00  5 1 -1 -13 13 21 2 0.33415186D-01 0.18847954D-02 0.13049812D+04 0.83673830D+04 0.83673830D+04 0.12174391D+01  1  2 12  1  5  1        1 0.128101396285D+03
-.668352266099D-03 0.000000000000D+00 0.000000000000D+00 0.904314669041D+00 0.000000000000D+00  5 1 -1 -13 13 21 2 0.26260751D-01 0.18847954D-02 0.12476711D+04 0.83648478D+04 0.83648478D+04 0.12174531D+01  1  2  4  1  5  1        1 -.125888641594D+02
0.302022113194D-03 0.000000000000D+00 0.000000000000D+00 0.904314669041D+00 0.000000000000D+00  5 21 -1 -13 13 -1 2 0.33415186D-01 0.18847954D-02 0.13049812D+04 0.83673830D+04 0.83673830D+04 0.12174391D+01  1  2 12  3  5  1        1 0.267058682855D+02
  </mgrwgt>
  </event>
  <event npLO=' -1 ' npNLO=' 0 '>
  5     66 0.13120323E+02 0.45487633E+02 0.75467711E-02 0.11769222E+00
        1 -1    0    0  501    0 0.00000000E+00 0.00000000E+00 0.98586993E+03 0.98586993E+03 0.00000000E+00 0.0000E+00 0.9000E+01
       -1 -1    0    0    0  501 0.00000000E+00 0.00000000E+00 -.21218294E+01 0.21218294E+01 0.00000000E+00 0.0000E+00 0.9000E+01
       23  2    1    2    0    0 0.00000000E+00 0.00000000E+00 0.98374811E+03 0.98799176E+03 0.91473445E+02 0.0000E+00 0.0000E+00
      -11  1    3    3    0    0 -.47273849E+01 -.45442740E+02 0.46907174E+03 0.47129151E+03 0.00000000E+00 0.0000E+00 0.9000E+01
       11  1    3    3    0    0 0.47273849E+01 0.45442740E+02 0.51467636E+03 0.51670025E+03 0.00000000E+00 0.0000E+00 0.9000E+01
#aMCatNLO 1  0  0  1  2 0.17917186D+02 0.00000000D+00  -5  5  0 0.00000000D+00 0.00000000D+00 0.00000000D+00 0.00000000D+00 0.00000000D+00
  <mgrwgt>
 0.8997225709D+03    9    2    0
 0.457367226190635D+02 0.000000000000000D+00 0.000000000000000D+00 0.457367226190635D+02
 0.457367226190635D+02 0.000000000000000D+00 0.000000000000000D+00 -.457367226190635D+02
 0.457367226190635D+02 -.472738492133788D+01 -.454427402683744D+02 -.211115718025215D+01
 0.457367226190635D+02 0.472738492133788D+01 0.454427402683744D+02 0.211115718025215D+01
 0.000000000000000D+00 -.000000000000000D+00 0.000000000000000D+00 0.000000000000000D+00
 0.615630897342399D+02 0.000000000000000D+00 0.000000000000000D+00 0.615630897342399D+02
 0.503971563404132D+02 0.000000000000000D+00 0.000000000000000D+00 -.503971563404132D+02
 0.540389996150275D+02 -.400625557795110D+01 -.538489220968939D+02 -.211115718025215D+01
 0.387520156995506D+02 0.533802754083538D+01 0.383244986674551D+02 0.211115718025215D+01
 0.191692307600750D+02 -.133177196288429D+01 0.155244234294388D+02 0.111659333938267D+02
0.378409334719D-01 0.000000000000D+00 0.000000000000D+00 0.812646658781D+00 0.000000000000D+00  5 1 -1 -11 11 21 0 0.15167230D+00 0.32643529D-03 0.20873908D+04 0.83673912D+04 0.83673912D+04 0.12174391D+01  1  2  2  1  5  1        1 0.506199784400D+03
-.210227117468D-02 0.000000000000D+00 -.145319148279D-03 0.812646658781D+00 0.000000000000D+00  5 1 -1 -11 11 21 2 0.15167230D+00 0.32643529D-03 0.20873908D+04 0.83673912D+04 0.83673912D+04 0.12174391D+01  1  2  3  1  5  1        1 -.456818737833D+02
0.188491692464D-02 0.000000000000D+00 0.000000000000D+00 0.812646658781D+00 0.000000000000D+00  5 1 -1 -11 11 21 2 0.15167230D+00 0.32643529D-03 0.20873908D+04 0.83673912D+04 0.83673912D+04 0.12174391D+01  1  2 15  1  5  1        1 0.373720410243D+02
0.360864966204D-01 0.000000000000D+00 0.000000000000D+00 0.812646658781D+00 0.000000000000D+00  5 1 -1 -11 11 21 2 0.22495861D+00 0.32643529D-03 0.29307960D+04 0.86101725D+04 0.86101725D+04 0.12161267D+01  1  2 12  1  5  1        1 0.339227824920D+03
-.378267047776D-01 0.000000000000D+00 0.000000000000D+00 0.812646658781D+00 0.000000000000D+00  5 1 -1 -11 11 21 2 0.15167230D+00 0.32643529D-03 0.20873908D+04 0.83673912D+04 0.83673912D+04 0.12174391D+01  1  2  4  1  5  1        1 -.749985924728D+03
-.594516031347D-01 0.000000000000D+00 -.175092432031D-01 0.812646658781D+00 0.000000000000D+00  5 1 -1 -11 11 21 2 0.21494711D+00 0.32643529D-03 0.20873908D+04 0.83673912D+04 0.83673912D+04 0.12174391D+01  1  2  5  1  5  1        1 -.868465667970D+03
0.627183468257D-01 0.000000000000D+00 0.164963102150D-01 0.812646658781D+00 0.000000000000D+00  5 1 -1 -11 11 21 2 0.15167230D+00 0.32643529D-03 0.20873908D+04 0.83673912D+04 0.83673912D+04 0.12174391D+01  1  2  6  1  5  1        1 0.169762342950D+04
0.169940099250D-02 0.000000000000D+00 0.000000000000D+00 0.812646658781D+00 0.000000000000D+00  5 21 -1 -11 11 -1 2 0.22495861D+00 0.32643529D-03 0.29307960D+04 0.86101725D+04 0.86101725D+04 0.12161267D+01  1  2 12  3  5  1        1 0.144141114177D+02
-.206875937554D-02 0.000000000000D+00 -.754301423094D-03 0.812646658781D+00 0.000000000000D+00  5 21 -1 -11 11 -1 2 0.21494711D+00 0.32643529D-03 0.20873908D+04 0.83673912D+04 0.83673912D+04 0.12174391D+01  1  2  5  3  5  1        1 -.309811538385D+02
  </mgrwgt>
  </event>
  <event npLO=' -1 ' npNLO=' 0 '>
  6     66 0.13120323E+02 0.87989272E+02 0.75467711E-02 0.11857774E+00
        3 -1    0    0  501    0 0.00000000E+00 0.00000000E+00 0.20101926E+02 0.20101926E+02 0.00000000E+00 0.0000E+00 0.9000E+01
       -3 -1    0    0    0  502 0.00000000E+00 0.00000000E+00 -.11973247E+03 0.11973247E+03 0.00000000E+00 0.0000E+00 0.9000E+01
       23  2    1    2    0    0 -.41705723E+01 -.61931190E+01 -.81259510E+02 0.12000403E+03 0.87989272E+02 0.0000E+00 0.0000E+00
      -11  1    3    3    0    0 0.25075205E+02 0.86181804E+01 0.56561935E+01 0.27111464E+02 0.00000000E+00 0.0000E+00 0.9000E+01
       11  1    3    3    0    0 -.29245778E+02 -.14811299E+02 -.86915703E+02 0.92892570E+02 0.00000000E+00 0.0000E+00 0.9000E+01
       21  1    1    2  501  502 0.41705723E+01 0.61931190E+01 -.18371038E+02 0.19830366E+02 0.00000000E+00 0.0000E+00 0.9000E+01
#aMCatNLO 2  0  0  2  1 0.82724302D+01 0.00000000D+00  -5  5  0 0.00000000D+00 0.00000000D+00 0.00000000D+00 0.00000000D+00 0.00000000D+00
  <mgrwgt>
 0.4207570120D+02    2    2    0
 0.439946357572648D+02 0.000000000000000D+00 0.000000000000000D+00 0.439946357572648D+02
 0.439946357572648D+02 0.000000000000000D+00 0.000000000000000D+00 -.439946357572648D+02
 0.439946357572648D+02 0.271107093935313D+02 0.116408155285052D+02 0.326347793837374D+02
 0.439946357572648D+02 -.271107093935313D+02 -.116408155285052D+02 -.326347793837374D+02
 0.000000000000000D+00 0.000000000000000D+00 0.000000000000000D+00 -.000000000000000D+00
 0.458157784782618D+02 0.000000000000000D+00 0.000000000000000D+00 0.458157784782618D+02
 0.525332858455851D+02 0.000000000000000D+00 0.000000000000000D+00 -.525332858455851D+02
 0.420483981398682D+02 0.250752054223794D+02 0.861818041869247D+01 0.326347793837374D+02
 0.462570960161760D+02 -.292457777437222D+02 -.148112994227149D+02 -.326347793837374D+02
 0.100435701678027D+02 0.417057232134287D+01 0.619311900402241D+01 -.671750736732325D+01
-.540044657001D-01 0.000000000000D+00 0.000000000000D+00 0.129080159884D+00 0.000000000000D+00  5 3 -3 -11 11 21 2 0.29696754D-02 0.19182886D-01 0.11143524D+04 0.77978603D+04 0.77978603D+04 0.12206932D+01  1  2 13  2  5  2       -3 -.402615801019D+03
0.589883493084D-01 0.000000000000D+00 0.000000000000D+00 0.129080159884D+00 0.185833768007D-01  5 3 -3 -11 11 21 2 0.30926041D-02 0.18420381D-01 0.11143524D+04 0.77978603D+04 0.77978603D+04 0.12206932D+01  1  2  1  2  5  2       -3 0.444691502215D+03
  </mgrwgt>
  </event>
  <event npLO=' -1 ' npNLO=' 0 '>
  5     66 0.13120323E+02 0.45107871E+02 0.75467711E-02 0.11841609E+00
        3 -1    0    0  501    0 0.00000000E+00 0.00000000E+00 0.14308930E+02 0.14308930E+02 0.00000000E+00 0.0000E+00 0.9000E+01
       -3 -1    0    0    0  501 0.00000000E+00 0.00000000E+00 -.13710489E+03 0.13710489E+03 0.00000000E+00 0.0000E+00 0.9000E+01
       23  2    1    2    0    0 0.00000000E+00 0.00000000E+00 -.12279596E+03 0.15141381E+03 0.88584968E+02 0.0000E+00 0.0000E+00
      -13  1    3    3    0    0 0.12881655E+02 -.22828693E+02 -.37183595E+00 0.26214968E+02 0.00000000E+00 0.0000E+00 0.9000E+01
       13  1    3    3    0    0 -.12881655E+02 0.22828693E+02 -.12242412E+03 0.12519885E+03 0.00000000E+00 0.0000E+00 0.9000E+01
#aMCatNLO 1  0  0  2  1 0.24798133D+02 0.00000000D+00  -5  5  0 0.00000000D+00 0.00000000D+00 0.00000000D+00 0.00000000D+00 0.00000000D+00
  <mgrwgt>
 0.2216776725D+03    6    2    0
 0.442924840145724D+02 0.000000000000000D+00 0.000000000000000D+00 0.442924840145724D+02
 0.442924840145724D+02 0.000000000000000D+00 0.000000000000000D+00 -.442924840145724D+02
 0.442924840145724D+02 0.128816551093008D+02 -.228286929447281D+02 0.357034715435558D+02
 0.442924840145724D+02 -.128816551093008D+02 0.228286929447281D+02 -.357034715435558D+02
 0.000000000000000D+00 -.000000000000000D+00 -.000000000000000D+00 0.000000000000000D+00
 0.572585645736383D+02 0.000000000000000D+00 0.000000000000000D+00 0.572585645736383D+02
 0.463608955486392D+02 0.000000000000000D+00 0.000000000000000D+00 -.463608955486392D+02
 0.437166771473424D+02 0.161491749627307D+02 -.193807669757050D+02 0.357034715435558D+02
 0.453859386392481D+02 -.955216051377184D+01 0.263420154016968D+02 -.357034715435558D+02
 0.145168443356871D+02 -.659701444895885D+01 -.696124842599172D+01 0.108976690249992D+02
0.289416853275D-01 0.000000000000D+00 0.000000000000D+00 0.194360888725D+00 0.000000000000D+00  5 3 -3 -13 13 21 0 0.22013738D-02 0.21093059D-01 0.68708626D+03 0.78472966D+04 0.78472966D+04 0.12204003D+01  1  2  2  2  5  2       -3 0.189036491737D+03
-.106989320337D-02 0.000000000000D+00 -.111143692178D-03 0.194360888725D+00 0.000000000000D+00  5 3 -3 -13 13 21 2 0.22013738D-02 0.21093059D-01 0.68708626D+03 0.78472966D+04 0.78472966D+04 0.12204003D+01  1  2  3  2  5  2       -3 -.130412460700D+02
0.971495445374D-03 0.000000000000D+00 0.000000000000D+00 0.194360888725D+00 0.000000000000D+00  5 3 -3 -13 13 21 2 0.22013738D-02 0.21093059D-01 0.68708626D+03 0.78472966D+04 0.78472966D+04 0.12204003D+01  1  2 15  2  5  2       -3 0.945077040081D+01
0.789872357424D-02 0.000000000000D+00 0.000000000000D+00 0.194360888725D+00 0.000000000000D+00  5 3 -3 -13 13 21 2 0.22013738D-02 0.28541170D-01 0.98716031D+03 0.79392761D+04 0.79392761D+04 0.12198609D+01  1  2 12  2  5  2       -3 0.445704639384D+02
-.365447781090D-02 0.000000000000D+00 0.000000000000D+00 0.194360888725D+00 0.000000000000D+00  5 3 -3 -13 13 21 2 0.22013738D-02 0.21093059D-01 0.68708626D+03 0.78472966D+04 0.78472966D+04 0.12204003D+01  1  2  4  2  5  2       -3 -.355509960341D+02
0.307092303484D-03 0.000000000000D+00 0.000000000000D+00 0.194360888725D+00 0.000000000000D+00  5 3 21 -13 13 3 2 0.22013738D-02 0.28541170D-01 0.98716031D+03 0.79392761D+04 0.79392761D+04 0.12198609D+01  1  2 12  4  5  2       -3 0.272121885277D+02
  </mgrwgt>
  </event>
  <event npLO=' -1 ' npNLO=' 0 '>
  5     66 -.13120323E+02 0.42279980E+02 0.75467711E-02 0.11782712E+00
        3 -1    0    0  501    0 0.00000000E+00 0.00000000E+00 0.84232007E+03 0.84232007E+03 0.00000000E+00 0.0000E+00 0.9000E+01
       -3 -1    0    0    0  501 0.00000000E+00 0.00000000E+00 -.25166835E+01 0.25166835E+01 0.00000000E+00 0.0000E+00 0.9000E+01
       23  2    1    2    0    0 0.00000000E+00 0.00000000E+00 0.83980339E+03 0.84483676E+03 0.92083723E+02 0.0000E+00 0.0000E+00
      -13  1    3    3    0    0 -.15060215E+02 0.95071531E+01 0.30366701E+02 0.35204155E+02 0.00000000E+00 0.0000E+00 0.9000E+01
       13  1    3    3    0    0 0.15060215E+02 -.95071531E+01 0.80943669E+03 0.80963260E+03 0.00000000E+00 0.0000E+00 0.9000E+01
#aMCatNLO 1  0  0  2  1 0.95794080D+00 0.00000000D+00  -5  5  0 0.00000000D+00 0.00000000D+00 0.00000000D+00 0.00000000D+00 0.00000000D+00
  <mgrwgt>
 -.6079154614D+02   11    2    0
 0.460418612807462D+02 0.000000000000000D+00 0.000000000000000D+00 0.460418612807462D+02
 0.460418612807462D+02 0.000000000000000D+00 0.000000000000000D+00 -.460418612807462D+02
 0.460418612807462D+02 -.150602145550286D+02 0.950715311457927D+01 -.424577079858055D+02
 0.460418612807462D+02 0.150602145550286D+02 -.950715311457927D+01 0.424577079858055D+02
 0.000000000000000D+00 -.000000000000000D+00 0.000000000000000D+00 -.000000000000000D+00
 0.461068599267119D+02 0.000000000000000D+00 0.000000000000000D+00 0.461068599267119D+02
 0.496444397483538D+02 0.000000000000000D+00 0.000000000000000D+00 -.496444397483538D+02
 0.458767084793574D+02 -.145913547648704D+02 0.943969171200575D+01 -.424577079858055D+02
 0.462119051431060D+02 0.155307841219798D+02 -.957486052660587D+01 0.424577079858055D+02
 0.366268605260226D+01 -.939429357109391D+00 0.135168814600128D+00 -.353757982164188D+01
0.280742221346D-01 0.000000000000D+00 0.000000000000D+00 0.127059163282D+01 0.000000000000D+00  5 3 -3 -13 13 21 0 0.12958770D+00 0.38718207D-03 0.31719602D+03 0.84794120D+04 0.84794120D+04 0.12168283D+01  1  2  2  2  5  2       -3 0.544668621231D+02
0.151017069219D-03 0.000000000000D+00 -.107812405109D-03 0.127059163282D+01 0.000000000000D+00  5 3 -3 -13 13 21 2 0.12958770D+00 0.38718207D-03 0.31719602D+03 0.84794120D+04 0.84794120D+04 0.12168283D+01  1  2  3  2  5  2       -3 -.583841449788D+00
0.111157796333D-02 0.000000000000D+00 0.000000000000D+00 0.127059163282D+01 0.000000000000D+00  5 3 -3 -13 13 21 2 0.12958770D+00 0.38718207D-03 0.31719602D+03 0.84794120D+04 0.84794120D+04 0.12168283D+01  1  2 15  2  5  2       -3 0.319317825347D+01
0.740348397677D-05 0.000000000000D+00 0.000000000000D+00 0.127059163282D+01 0.000000000000D+00  5 3 -3 -13 13 21 2 0.12958770D+00 0.41806677D-03 0.33439209D+03 0.84803128D+04 0.84803128D+04 0.12168234D+01  1  2 12  2  5  2       -3 0.191501315485D-01
-.128265038460D+01 0.000000000000D+00 0.000000000000D+00 0.127059163282D+01 0.000000000000D+00  5 3 -3 -13 13 21 2 0.12958770D+00 0.38718207D-03 0.31719602D+03 0.84794120D+04 0.84794120D+04 0.12168283D+01  1  2  4  2  5  2       -3 -.368461003190D+04
-.138407784290D+01 0.000000000000D+00 -.465009479095D-01 0.127059163282D+01 0.000000000000D+00  5 3 -3 -13 13 21 2 0.12958770D+00 0.41806452D-03 0.31719602D+03 0.84794120D+04 0.84794120D+04 0.12168283D+01  1  2  5  2  5  2       -3 -.397536663367D+04
0.138370652977D+01 0.000000000000D+00 0.463643578408D-01 0.127059163282D+01 0.000000000000D+00  5 3 -3 -13 13 21 2 0.12958770D+00 0.38718207D-03 0.31719602D+03 0.84794120D+04 0.84794120D+04 0.12168283D+01  1  2  6  2  5  2       -3 0.441255102891D+04
0.128657949505D+01 0.000000000000D+00 0.000000000000D+00 0.127059163282D+01 0.111728314050D+02  5 3 -3 -13 13 21 2 0.12977065D+00 0.41747741D-03 0.33439209D+03 0.84803128D+04 0.84803128D+04 0.12168234D+01  1  2 11  2  5  2       -3 0.332304301322D+04
0.107215362556D-06 0.000000000000D+00 0.000000000000D+00 0.127059163282D+01 0.000000000000D+00  5 3 21 -13 13 3 2 0.12958770D+00 0.41806677D-03 0.33439209D+03 0.84803128D+04 0.84803128D+04 0.12168234D+01  1  2 12  4  5  2       -3 0.606461045741D-02
-.177216029931D-01 0.000000000000D+00 -.598521938675D-03 0.127059163282D+01 0.000000000000D+00  5 3 21 -13 13 3 2 0.12958770D+00 0.41806452D-03 0.31719602D+03 0.84794120D+04 0.84794120D+04 0.12168283D+01  1  2  5  4  5  2       -3 -.111367026491D+04
0.162897192627D-01 0.000000000000D+00 0.000000000000D+00 0.127059163282D+01 0.141101075227D+00  5 3 21 -13 13 3 2 0.12977065D+00 0.41747741D-03 0.33439209D+03 0.84803128D+04 0.84803128D+04 0.12168234D+01  1  2 11  4  5  2       -3 0.920159928543D+03
  </mgrwgt>
  </event>
  <event npLO=' -1 ' npNLO=' 0 '>
  5     66 0.13120323E+02 0.67520761E+02 0.75467711E-02 0.11782075E+00
        1 -1    0    0  501    0 0.00000000E+00 0.00000000E+00 0.11322695E+04 0.11322695E+04 0.00000000E+00 0.0000E+00 0.9000E+01
       -1 -1    0    0    0  501 0.00000000E+00 0.00000000E+00 -.18664849E+01 0.18664849E+01 0.00000000E+00 0.0000E+00 0.9000E+01
       23  2    1    2    0    0 0.00000000E+00 0.00000000E+00 0.11304030E+04 0.11341360E+04 0.91942676E+02 0.0000E+00 0.0000E+00
      -11  1    3    3    0    0 0.27828008E+02 0.23613155E+02 0.22039101E+03 0.22339243E+03 0.00000000E+00 0.0000E+00 0.9000E+01
       11  1    3    3    0    0 -.27828008E+02 -.23613155E+02 0.91001198E+03 0.91074354E+03 0.00000000E+00 0.0000E+00 0.9000E+01
#aMCatNLO 1  0  0  2  1 0.83712065D+01 0.00000000D+00  -5  5  0 0.00000000D+00 0.00000000D+00 0.00000000D+00 0.00000000D+00 0.00000000D+00
  <mgrwgt>
 0.6556886241D+03    8    2    0
 0.459713380638396D+02 0.000000000000000D+00 0.000000000000000D+00 0.459713380638396D+02
 0.459713380638396D+02 0.000000000000000D+00 0.000000000000000D+00 -.459713380638396D+02
 0.459713380638396D+02 0.278280080786458D+02 0.236131549141402D+02 -.279532610755072D+02
 0.459713380638396D+02 -.278280080786458D+02 -.236131549141402D+02 0.279532610755072D+02
 0.000000000000000D+00 0.000000000000000D+00 -.000000000000000D+00 0.000000000000000D+00
 0.491193260036802D+02 0.000000000000000D+00 0.000000000000000D+00 0.491193260036802D+02
 0.487531355559056D+02 0.000000000000000D+00 0.000000000000000D+00 -.487531355559056D+02
 0.471891509115955D+02 0.272923236368821D+02 0.264680983355728D+02 -.279532610755072D+02
 0.449324737132719D+02 -.283507163447955D+02 -.208273683401275D+02 0.279532610755072D+02
 0.575083693471842D+01 0.105839270791345D+01 -.564072999544526D+01 0.366190447774564D+00
0.393990163970D-01 0.000000000000D+00 0.000000000000D+00 0.101742944215D+01 0.000000000000D+00  5 1 -1 -11 11 21 0 0.17419530D+00 0.28715153D-03 0.13319791D+04 0.84534557D+04 0.84534557D+04 0.12169690D+01  1  2  2  2  5  2       -1 0.492746336113D+03
-.204706098602D-02 0.000000000000D+00 -.151302596964D-03 0.101742944215D+01 0.000000000000D+00  5 1 -1 -11 11 21 2 0.17419530D+00 0.28715153D-03 0.13319791D+04 0.84534557D+04 0.84534557D+04 0.12169690D+01  1  2  3  2  5  2       -1 -.430952066220D+02
0.214842012053D-02 0.000000000000D+00 0.000000000000D+00 0.101742944215D+01 0.000000000000D+00  5 1 -1 -11 11 21 2 0.17419530D+00 0.28715153D-03 0.13319791D+04 0.84534557D+04 0.84534557D+04 0.12169690D+01  1  2 15  2  5  2       -1 0.397938799210D+02
0.375232191655D-01 0.000000000000D+00 0.000000000000D+00 0.101742944215D+01 0.000000000000D+00  5 1 -1 -11 11 21 2 0.17419530D+00 0.32538070D-03 0.15577512D+04 0.84863937D+04 0.84863937D+04 0.12167905D+01  1  2 12  2  5  2       -1 0.587526483613D+03
-.361162814921D-01 0.000000000000D+00 0.000000000000D+00 0.101742944215D+01 0.000000000000D+00  5 1 -1 -11 11 21 2 0.17419530D+00 0.28715153D-03 0.13319791D+04 0.84534557D+04 0.84534557D+04 0.12169690D+01  1  2  4  2  5  2       -1 -.668959927881D+03
0.663172479681D-04 0.000000000000D+00 0.000000000000D+00 0.101742944215D+01 0.244713097701D+00  5 1 -1 -11 11 21 2 0.18612371D+00 0.30452752D-03 0.15577512D+04 0.84863937D+04 0.84863937D+04 0.12167905D+01  1  2 11  2  5  2       -1 0.100462332684D+01
0.736665944168D-03 0.000000000000D+00 0.000000000000D+00 0.101742944215D+01 0.000000000000D+00  5 1 21 -11 11 1 2 0.17419530D+00 0.32538070D-03 0.15577512D+04 0.84863937D+04 0.84863937D+04 0.12167905D+01  1  2 12  4  5  2       -1 0.246161676214D+03
0.157174209039D-05 0.000000000000D+00 0.000000000000D+00 0.101742944215D+01 0.263951559449D-02  5 1 21 -11 11 1 2 0.18612371D+00 0.30452752D-03 0.15577512D+04 0.84863937D+04 0.84863937D+04 0.12167905D+01  1  2 11  4  5  2       -1 0.510759436075D+00
  </mgrwgt>
  </event>
  <event npLO=' -1 ' npNLO=' 0 '>
  5     66 0.13120323E+02 0.84732485E+02 0.75467711E-02 0.11677751E+00
        3 -1    0    0  501    0 0.00000000E+00 0.00000000E+00 0.91280553E+02 0.91280553E+02 0.00000000E+00 0.0000E+00 0.9000E+01
       -3 -1    0    0    0  501 0.00000000E+00 0.00000000E+00 -.26166163E+02 0.26166163E+02 0.00000000E+00 0.0000E+00 0.9000E+01
       23  2    1    2    0    0 0.00000000E+00 0.00000000E+00 0.65114390E+02 0.11744672E+03 0.97743784E+02 0.0000E+00 0.0000E+00
      -13  1    3    3    0    0 -.61890362E+01 0.32568138E+02 -.10590543E+02 0.34801543E+02 0.00000000E+00 0.0000E+00 0.9000E+01
       13  1    3    3    0    0 0.61890362E+01 -.32568138E+02 0.75704933E+02 0.82645173E+02 0.00000000E+00 0.0000E+00 0.9000E+01
#aMCatNLO 1  0  0  1  1 0.77607505D+00 0.00000000D+00  -5  5  0 0.00000000D+00 0.00000000D+00 0.00000000D+00 0.00000000D+00 0.00000000D+00
  <mgrwgt>
 0.1954702915D+03    7    2    0
 0.488718919012596D+02 0.000000000000000D+00 0.000000000000000D+00 0.488718919012596D+02
 0.488718919012596D+02 0.000000000000000D+00 0.000000000000000D+00 -.488718919012596D+02
 0.488718919012596D+02 -.618903621334966D+01 0.325681376431283D+02 -.359092475445602D+02
 0.488718919012596D+02 0.618903621334966D+01 -.325681376431283D+02 0.359092475445602D+02
 0.000000000000000D+00 0.000000000000000D+00 0.000000000000000D+00 -.000000000000000D+00
 0.489383346381491D+02 0.000000000000000D+00 0.000000000000000D+00 0.489383346381491D+02
 0.492294483710348D+02 0.000000000000000D+00 0.000000000000000D+00 -.492294483710348D+02
 0.487933447447253D+02 -.626632849545713D+01 0.324353134615365D+02 -.359092475445602D+02
 0.489509230664925D+02 0.611161922373603D+01 -.327011761303660D+02 0.359092475445602D+02
 0.423515197966127D+00 0.154709271721108D+00 0.265862668829545D+00 -.291113732885695D+00
0.269708560110D-01 0.000000000000D+00 0.000000000000D+00 0.721214493801D-01 0.000000000000D+00  5 3 -3 -13 13 21 0 0.14043162D-01 0.40255635D-02 0.10989878D+04 0.95538473D+04 0.95538473D+04 0.12113920D+01  1  2  2  1  5  1        3 0.149462140858D+03
-.122393408066D-02 0.000000000000D+00 -.103575188672D-03 0.721214493801D-01 0.000000000000D+00  5 3 -3 -13 13 21 2 0.14043162D-01 0.40255635D-02 0.10989878D+04 0.95538473D+04 0.95538473D+04 0.12113920D+01  1  2  3  1  5  1        3 -.117747247561D+02
0.156649418196D-02 0.000000000000D+00 0.000000000000D+00 0.721214493801D-01 0.000000000000D+00  5 3 -3 -13 13 21 2 0.14043162D-01 0.40255635D-02 0.10989878D+04 0.95538473D+04 0.95538473D+04 0.12113920D+01  1  2 15  1  5  1        3 0.127389802774D+02
-.133219806010D+00 0.000000000000D+00 0.000000000000D+00 0.721214493801D-01 0.000000000000D+00  5 3 -3 -13 13 21 2 0.14043162D-01 0.40255635D-02 0.10989878D+04 0.95538473D+04 0.95538473D+04 0.12113920D+01  1  2  4  1  5  1        3 -.108336468840D+04
0.133224470768D+00 0.000000000000D+00 0.000000000000D+00 0.721214493801D-01 0.596587411558D+01  5 3 -3 -13 13 21 2 0.14062254D-01 0.40550153D-02 0.11092251D+04 0.95539419D+04 0.95539419D+04 0.12113916D+01  1  2 11  1  5  1        3 0.106938667493D+04
0.361021483242D-09 0.000000000000D+00 0.000000000000D+00 0.721214493801D-01 0.000000000000D+00  5 21 -3 -13 13 -3 2 0.14165136D-01 0.40255635D-02 0.11092251D+04 0.95539419D+04 0.95539419D+04 0.12113916D+01  1  2 12  3  5  1        3 0.465189078107D-04
0.457243114868D-03 0.000000000000D+00 0.000000000000D+00 0.721214493801D-01 0.152479123862D-02  5 21 -3 -13 13 -3 2 0.14062254D-01 0.40550153D-02 0.11092251D+04 0.95539419D+04 0.95539419D+04 0.12113916D+01  1  2 11  3  5  1        3 0.590218620563D+02
  </mgrwgt>
  </event>
  <event npLO=' -1 ' npNLO=' 0 '>
  6     66 0.13120323E+02 0.91564390E+02 0.75467711E-02 0.11653691E+00
        1 -1    0    0  501    0 0.00000000E+00 0.00000000E+00 0.46097519E+02 0.46097519E+02 0.00000000E+00 0.0000E+00 0.9000E+01
       21 -1    0    0  502  501 0.00000000E+00 0.00000000E+00 -.11203034E+03 0.11203034E+03 0.00000000E+00 0.0000E+00 0.9000E+01
       23  2    1    2    0    0 -.27244402E+02 0.26370012E+02 -.24748671E+02 0.10214778E+03 0.91564390E+02 0.0000E+00 0.0000E+00
      -13  1    3    3    0    0 -.21500229E+02 0.60506405E+02 -.19689751E+02 0.67163764E+02 0.00000000E+00 0.0000E+00 0.9000E+01
       13  1    3    3    0    0 -.57441732E+01 -.34136392E+02 -.50589196E+01 0.34984017E+02 0.00000000E+00 0.0000E+00 0.9000E+01
        1  1    1    2  502    0 0.27244402E+02 -.26370012E+02 -.41184152E+02 0.55980080E+02 0.00000000E+00 0.0000E+00 0.9000E+01
#aMCatNLO 2  0  0  2  1 0.44380997D+02 0.00000000D+00  -5  5  0 0.00000000D+00 0.00000000D+00 0.00000000D+00 0.00000000D+00 0.00000000D+00
  <mgrwgt>
 0.7068816256D+02    2    2    0
 0.457821948216812D+02 0.000000000000000D+00 0.000000000000000D+00 0.457821948216812D+02
 0.457821948216812D+02 0.000000000000000D+00 0.000000000000000D+00 -.457821948216812D+02
 0.457821948216812D+02 -.576939796375450D+01 0.452804435855493D+02 -.352205032929530D+01
 0.457821948216812D+02 0.576939796375450D+01 -.452804435855493D+02 0.352205032929530D+01
 0.000000000000000D+00 0.000000000000000D+00 -.000000000000000D+00 -.000000000000000D+00
 0.590247707309582D+02 0.000000000000000D+00 0.000000000000000D+00 0.590247707309582D+02
 0.874941277722309D+02 0.000000000000000D+00 0.000000000000000D+00 -.874941277722309D+02
 0.643093280999859D+02 -.215002287996158D+02 0.605064046503651D+02 -.352205032929530D+01
 0.347950232010640D+02 -.574417322048653D+01 -.341363922383948D+02 0.352205032929530D+01
 0.474145472021392D+02 0.272444020201023D+02 -.263700124119703D+02 -.284693570412726D+02
-.942799602556D-03 0.000000000000D+00 0.000000000000D+00 0.799103510938D+00 0.000000000000D+00  5 1 21 -13 13 1 2 0.55008081D-02 0.22220816D-01 0.46748175D+04 0.98216724D+04 0.98216724D+04 0.12101430D+01  1  2 13  4  5  2       -1 -.435026365065D+02
0.221442024969D-02 0.000000000000D+00 0.000000000000D+00 0.799103510938D+00 0.690818889711D-03  5 1 21 -13 13 1 2 0.70919260D-02 0.17235437D-01 0.46748175D+04 0.98216724D+04 0.98216724D+04 0.12101430D+01  1  2  1  4  5  2       -1 0.114190799069D+03
  </mgrwgt>
  </event>
  <event npLO=' -1 ' npNLO=' 0 '>
  5     66 0.13120323E+02 0.10317416E+03 0.75467711E-02 0.11079193E+00
        3 -1    0    0  501    0 0.00000000E+00 0.00000000E+00 0.78609655E+01 0.78609655E+01 0.00000000E+00 0.0000E+00 0.9000E+01
       -3 -1    0    0    0  501 0.00000000E+00 0.00000000E+00 -.33853690E+03 0.33853690E+03 0.00000000E+00 0.0000E+00 0.9000E+01
       23  2    1    2    0    0 0.00000000E+00 0.00000000E+00 -.33067593E+03 0.34639786E+03 0.10317416E+03 0.0000E+00 0.0000E+00
      -11  1    3    3    0    0 0.44906314E+02 -.17124213E+02 -.22827583E+03 0.23328024E+03 0.00000000E+00 0.0000E+00 0.9000E+01
       11  1    3    3    0    0 -.44906314E+02 0.17124213E+02 -.10240010E+03 0.11311762E+03 0.00000000E+00 0.0000E+00 0.9000E+01
#aMCatNLO 1  0  0  1  1 0.12643433D+03 0.00000000D+00  -5  5  0 0.00000000D+00 0.00000000D+00 0.00000000D+00 0.00000000D+00 0.00000000D+00
  <mgrwgt>
 0.1950350069D+03    5    2    0
 0.515870804920669D+02 0.000000000000000D+00 0.000000000000000D+00 0.515870804920669D+02
 0.515870804920669D+02 0.000000000000000D+00 0.000000000000000D+00 -.515870804920669D+02
 0.515870804920669D+02 0.449063143311878D+02 -.171242125076189D+02 -.187459636422740D+02
 0.515870804920669D+02 -.449063143311878D+02 0.171242125076189D+02 0.187459636422740D+02
 0.000000000000000D+00 0.000000000000000D+00 -.000000000000000D+00 0.000000000000000D+00
 0.129794095871122D+03 0.000000000000000D+00 0.000000000000000D+00 0.129794095871122D+03
 0.108175677193533D+03 0.000000000000000D+00 0.000000000000000D+00 -.108175677193533D+03
 0.448984357719560D+02 0.358478323975645D+02 0.194779694600623D+02 -.187459636422740D+02
 0.954705772769255D+02 -.587127299226860D+02 0.729111467317424D+02 0.187459636422740D+02
 0.976007600157736D+02 0.228648975251215D+02 -.923891161918047D+02 0.216184186775890D+02
0.751182026468D-01 0.000000000000D+00 0.000000000000D+00 0.187808272374D-01 0.000000000000D+00  5 3 -3 -11 11 21 0 0.12093793D-02 0.52082600D-01 0.23098157D+04 0.10644907D+05 0.10644907D+05 0.12065288D+01  1  2  2  1  5  1        3 0.203419400763D+03
-.414779212128D-02 0.000000000000D+00 -.288473677241D-03 0.187808272374D-01 0.000000000000D+00  5 3 -3 -11 11 21 2 0.12093793D-02 0.52082600D-01 0.23098157D+04 0.10644907D+05 0.10644907D+05 0.12065288D+01  1  2  3  1  5  1        3 -.180883312805D+02
0.420930978668D-02 0.000000000000D+00 0.000000000000D+00 0.187808272374D-01 0.000000000000D+00  5 3 -3 -11 11 21 2 0.12093793D-02 0.52082600D-01 0.23098157D+04 0.10644907D+05 0.10644907D+05 0.12065288D+01  1  2 15  1  5  1        3 0.165933260102D+02
0.600305672188D-01 0.000000000000D+00 -.383686608958D-01 0.187808272374D-01 0.000000000000D+00  5 3 -3 -11 11 21 2 0.64044542D-02 0.52082600D-01 0.23098157D+04 0.10644907D+05 0.10644907D+05 0.12065288D+01  1  2  5  1  5  1        3 0.489971855691D+00
0.107162590293D-01 0.000000000000D+00 -.781700727795D-02 0.187808272374D-01 0.000000000000D+00  5 21 -3 -11 11 -3 2 0.64044542D-02 0.52082600D-01 0.23098157D+04 0.10644907D+05 0.10644907D+05 0.12065288D+01  1  2  5  3  5  1        3 -.737936043952D+01
  </mgrwgt>
  </event>
  <event npLO=' -1 ' npNLO=' 0 '>
  5     66 0.13120323E+02 0.35505263E+02 0.75467711E-02 0.11705423E+00
        1 -1    0    0  501    0 0.00000000E+00 0.00000000E+00 0.34556152E+02 0.34556152E+02 0.00000000E+00 0.0000E+00 0.9000E+01
       -1 -1    0    0    0  501 0.00000000E+00 0.00000000E+00 -.66786661E+02 0.66786661E+02 0.00000000E+00 0.0000E+00 0.9000E+01
       23  2    1    2    0    0 0.00000000E+00 0.00000000E+00 -.32230509E+02 0.10134281E+03 0.96081008E+02 0.0000E+00 0.0000E+00
      -13  1    3    3    0    0 -.16439962E+02 0.29554052E+02 -.52103830E+02 0.62117015E+02 0.00000000E+00 0.0000E+00 0.9000E+01
       13  1    3    3    0    0 0.16439962E+02 -.29554052E+02 0.19873322E+02 0.39225799E+02 0.00000000E+00 0.0000E+00 0.9000E+01
#aMCatNLO 1  0  0  1  2 0.51970078D+01 0.00000000D+00  -5  5  0 0.00000000D+00 0.00000000D+00 0.00000000D+00 0.00000000D+00 0.00000000D+00
  <mgrwgt>
 0.2741143063D+03   11    2    0
 0.480405039299700D+02 0.000000000000000D+00 0.000000000000000D+00 0.480405039299700D+02
 0.480405039299700D+02 0.000000000000000D+00 0.000000000000000D+00 -.480405039299700D+02
 0.480405039299700D+02 -.164399623226972D+02 0.295540519851817D+02 -.341200185804600D+02
 0.480405039299700D+02 0.164399623226972D+02 -.295540519851817D+02 0.341200185804600D+02
 0.000000000000000D+00 -.000000000000000D+00 0.000000000000000D+00 0.000000000000000D+00
 0.571682987256770D+02 0.000000000000000D+00 0.000000000000000D+00 0.571682987256770D+02
 0.487894682466753D+02 0.000000000000000D+00 0.000000000000000D+00 -.487894682466753D+02
 0.464877600361682D+02 -.161684948829910D+02 0.271203970927439D+02 -.341200185804600D+02
 0.497222877759628D+02 0.167207187192437D+02 -.320709806407078D+02 0.341200185804600D+02
 0.974771916022123D+01 -.552223836252679D+00 0.495058354796388D+01 0.837883047900170D+01
0.408462137857D-01 0.000000000000D+00 0.000000000000D+00 0.113286786025D+00 0.000000000000D+00  5 1 -1 -13 13 21 0 0.53163311D-02 0.10274871D-01 0.11437143D+04 0.92315601D+04 0.92315601D+04 0.12129479D+01  1  2  2  1  5  1        1 0.369511149477D+03
-.192926454602D-02 0.000000000000D+00 -.156860215992D-03 0.113286786025D+00 0.000000000000D+00  5 1 -1 -13 13 21 2 0.53163311D-02 0.10274871D-01 0.11437143D+04 0.92315601D+04 0.92315601D+04 0.12129479D+01  1  2  3  1  5  1        1 -.300373346422D+02
0.201719911678D-02 0.000000000000D+00 0.000000000000D+00 0.113286786025D+00 0.000000000000D+00  5 1 -1 -13 13 21 2 0.53163311D-02 0.10274871D-01 0.11437143D+04 0.92315601D+04 0.92315601D+04 0.12129479D+01  1  2 15  1  5  1        1 0.268478057598D+02
0.107061690906D+00 0.000000000000D+00 0.000000000000D+00 0.113286786025D+00 0.000000000000D+00  5 1 -1 -13 13 21 2 0.64250760D-02 0.10274871D-01 0.13221829D+04 0.92563733D+04 0.92563733D+04 0.12128260D+01  1  2 12  1  5  1        1 0.110407917957D+04
-.233491903604D+00 0.000000000000D+00 0.000000000000D+00 0.113286786025D+00 0.000000000000D+00  5 1 -1 -13 13 21 2 0.53163311D-02 0.10274871D-01 0.11437143D+04 0.92315601D+04 0.92315601D+04 0.12129479D+01  1  2  4  1  5  1        1 -.310764823478D+04
-.294130327602D+00 0.000000000000D+00 -.364318984680D-01 0.113286786025D+00 0.000000000000D+00  5 1 -1 -13 13 21 2 0.64183835D-02 0.10274871D-01 0.11437143D+04 0.92315601D+04 0.92315601D+04 0.12129479D+01  1  2  5  1  5  1        1 -.382321607683D+04
0.296356367031D+00 0.000000000000D+00 0.357948717981D-01 0.113286786025D+00 0.000000000000D+00  5 1 -1 -13 13 21 2 0.53163311D-02 0.10274871D-01 0.11437143D+04 0.92315601D+04 0.92315601D+04 0.12129479D+01  1  2  6  1  5  1        1 0.493924878373D+04
0.123078504774D+00 0.000000000000D+00 0.000000000000D+00 0.113286786025D+00 0.361479096317D-01  5 1 -1 -13 13 21 2 0.63264450D-02 0.10435059D-01 0.13221829D+04 0.92563733D+04 0.92563733D+04 0.12128260D+01  1  2 11  1  5  1        1 0.126675118993D+04
0.293810526551D-02 0.000000000000D+00 0.000000000000D+00 0.113286786025D+00 0.000000000000D+00  5 21 -1 -13 13 -1 2 0.64250760D-02 0.10274871D-01 0.13221829D+04 0.92563733D+04 0.92563733D+04 0.12128260D+01  1  2 12  3  5  1        1 0.403647615114D+03
-.765906945639D-02 0.000000000000D+00 -.995537123106D-03 0.113286786025D+00 0.000000000000D+00  5 21 -1 -13 13 -1 2 0.64183835D-02 0.10274871D-01 0.11437143D+04 0.92315601D+04 0.92315601D+04 0.12129479D+01  1  2  5  3  5  1        1 -.134014429625D+04
0.337752512320D-02 0.000000000000D+00 0.000000000000D+00 0.113286786025D+00 0.966531057828D-03  5 21 -1 -13 13 -1 2 0.63264450D-02 0.10435059D-01 0.13221829D+04 0.92563733D+04 0.92563733D+04 0.12128260D+01  1  2 11  3  5  1        1 0.465074525176D+03
  </mgrwgt>
  </event>
  <event npLO=' -1 ' npNLO=' 0 '>
  5     66 0.13120323E+02 0.89715141E+02 0.75467711E-02 0.11785021E+00
        1 -1    0    0  501    0 0.00000000E+00 0.00000000E+00 0.41993834E+03 0.41993834E+03 0.00000000E+00 0.0000E+00 0.9000E+01
       -1 -1    0    0    0  501 0.00000000E+00 0.00000000E+00 -.47916597E+01 0.47916597E+01 0.00000000E+00 0.0000E+00 0.9000E+01
       23  2    1    2    0    0 0.00000000E+00 0.00000000E+00 0.41514668E+03 0.42473000E+03 0.89715141E+02 0.0000E+00 0.0000E+00
      -13  1    3    3    0    0 -.21554176E+02 0.37275345E+02 0.14803370E+03 0.15416878E+03 0.00000000E+00 0.0000E+00 0.9000E+01
       13  1    3    3    0    0 0.21554176E+02 -.37275345E+02 0.26711298E+03 0.27056123E+03 0.00000000E+00 0.0000E+00 0.9000E+01
#aMCatNLO 1  0  0  1  2 0.14531870D+03 0.00000000D+00  -5  5  0 0.00000000D+00 0.00000000D+00 0.00000000D+00 0.00000000D+00 0.00000000D+00
  <mgrwgt>
 0.3756789035D+03    3    2    0
 0.448575706614650D+02 0.000000000000000D+00 0.000000000000000D+00 0.448575706614650D+02
 0.448575706614650D+02 0.000000000000000D+00 0.000000000000000D+00 -.448575706614650D+02
 0.448575706614650D+02 -.215541762775018D+02 0.372753452311843D+02 -.125764767937101D+02
 0.448575706614650D+02 0.215541762775018D+02 -.372753452311843D+02 0.125764767937101D+02
 0.000000000000000D+00 0.000000000000000D+00 0.000000000000000D+00 -.000000000000000D+00
 0.466864687210707D+02 0.000000000000000D+00 0.000000000000000D+00 0.466864687210707D+02
 0.191834949917867D+03 0.000000000000000D+00 0.000000000000000D+00 -.191834949917867D+03
 0.386391111999773D+02 -.233004179961248D+02 0.281407829846175D+02 -.125764767937101D+02
 0.533299714692842D+02 0.195006912946819D+02 -.480170920339982D+02 0.125764767937101D+02
 0.146552335969677D+03 0.379972670144292D+01 0.198763090493807D+02 -.145148481196797D+03
0.251693942737D-01 0.000000000000D+00 0.000000000000D+00 0.372822210253D+00 0.000000000000D+00  5 1 -1 -13 13 21 0 0.64605899D-01 0.73717842D-03 0.18540339D+04 0.80488066D+04 0.80488066D+04 0.12192276D+01  1  2  2  1  5  1        1 0.377003026370D+03
-.139545111750D-02 0.000000000000D+00 -.966571012645D-04 0.372822210253D+00 0.000000000000D+00  5 1 -1 -13 13 21 2 0.64605899D-01 0.73717842D-03 0.18540339D+04 0.80488066D+04 0.80488066D+04 0.12192276D+01  1  2  3  1  5  1        1 -.342307935722D+02
0.147789076010D-02 0.000000000000D+00 0.000000000000D+00 0.372822210253D+00 0.000000000000D+00  5 1 -1 -13 13 21 2 0.64605899D-01 0.73717842D-03 0.18540339D+04 0.80488066D+04 0.80488066D+04 0.12192276D+01  1  2 15  1  5  1        1 0.329066707402D+02
  </mgrwgt>
  </event>
  <event npLO=' -1 ' npNLO=' 0 '>
  5     66 0.13120323E+02 0.35448748E+02 0.75467711E-02 0.12188296E+00
        1 -1    0    0  501    0 0.00000000E+00 0.00000000E+00 0.35806089E+02 0.35806089E+02 0.00000000E+00 0.0000E+00 0.9000E+01
       -1 -1    0    0    0  501 0.00000000E+00 0.00000000E+00 -.38086842E+02 0.38086842E+02 0.00000000E+00 0.0000E+00 0.9000E+01
       23  2    1    2    0    0 0.00000000E+00 0.00000000E+00 -.22807529E+01 0.73892931E+02 0.73857724E+02 0.0000E+00 0.0000E+00
      -13  1    3    3    0    0 -.21927578E+02 0.20123512E+02 0.20732489E+02 0.36271345E+02 0.00000000E+00 0.0000E+00 0.9000E+01
       13  1    3    3    0    0 0.21927578E+02 -.20123512E+02 -.23013242E+02 0.37621585E+02 0.00000000E+00 0.0000E+00 0.9000E+01
#aMCatNLO 1  0  0  1  2 0.15472068D+02 0.00000000D+00  -5  5  0 0.00000000D+00 0.00000000D+00 0.00000000D+00 0.00000000D+00 0.00000000D+00
  <mgrwgt>
 0.7413571933D+03    6    2    0
 0.369288618428618D+02 0.000000000000000D+00 0.000000000000000D+00 0.369288618428618D+02
 0.369288618428618D+02 0.000000000000000D+00 0.000000000000000D+00 -.369288618428618D+02
 0.369288618428618D+02 -.219275777516240D+02 0.201235118756905D+02 0.218624436132973D+02
 0.369288618428618D+02 0.219275777516240D+02 -.201235118756905D+02 -.218624436132973D+02
 0.000000000000000D+00 -.000000000000000D+00 -.000000000000000D+00 -.000000000000000D+00
 0.370102508549583D+02 0.000000000000000D+00 0.000000000000000D+00 0.370102508549583D+02
 0.454670238491167D+02 0.000000000000000D+00 0.000000000000000D+00 -.454670238491167D+02
 0.365660170335127D+02 -.211590316000162D+02 0.202830604865256D+02 0.218624436132973D+02
 0.373085576593108D+02 0.227038887536418D+02 -.199623512977749D+02 -.218624436132973D+02
 0.860270001125143D+01 -.154485715362566D+01 -.320709188750657D+00 -.845677299415846D+01
0.254449925089D-01 0.000000000000D+00 0.000000000000D+00 0.429951732740D-02 0.000000000000D+00  5 1 -1 -13 13 21 0 0.55086290D-02 0.58595141D-02 0.88577440D+03 0.54549633D+04 0.54549633D+04 0.12376110D+01  1  2  2  1  5  1        1 0.473667466536D+03
-.133359737116D-02 0.000000000000D+00 -.977154710544D-04 0.429951732740D-02 0.000000000000D+00  5 1 -1 -13 13 21 2 0.55086290D-02 0.58595141D-02 0.88577440D+03 0.54549633D+04 0.54549633D+04 0.12376110D+01  1  2  3  1  5  1        1 -.430892671771D+02
0.106494610561D-02 0.000000000000D+00 0.000000000000D+00 0.429951732740D-02 0.000000000000D+00  5 1 -1 -13 13 21 2 0.55086290D-02 0.58595141D-02 0.88577440D+03 0.54549633D+04 0.54549633D+04 0.12376110D+01  1  2 15  1  5  1        1 0.303645749284D+02
0.103676956430D-01 0.000000000000D+00 0.000000000000D+00 0.429951732740D-02 0.000000000000D+00  5 1 -1 -13 13 21 2 0.67972030D-02 0.58595141D-02 0.93391758D+03 0.54574528D+04 0.54574528D+04 0.12375890D+01  1  2 12  1  5  1        1 0.223311079631D+03
-.105876829397D-02 0.000000000000D+00 0.000000000000D+00 0.429951732740D-02 0.000000000000D+00  5 1 -1 -13 13 21 2 0.55086290D-02 0.58595141D-02 0.88577440D+03 0.54549633D+04 0.54549633D+04 0.12376110D+01  1  2  4  1  5  1        1 -.301884283390D+02
0.308168420625D-03 0.000000000000D+00 0.000000000000D+00 0.429951732740D-02 0.000000000000D+00  5 21 -1 -13 13 -1 2 0.67972030D-02 0.58595141D-02 0.93391758D+03 0.54574528D+04 0.54574528D+04 0.12375890D+01  1  2 12  3  5  1        1 0.872917677014D+02
  </mgrwgt>
  </event>
  <event npLO=' -1 ' npNLO=' 0 '>
  5     66 0.13120323E+02 0.46566395E+02 0.75467711E-02 0.11739848E+00
        1 -1    0    0  501    0 0.00000000E+00 0.00000000E+00 0.87248152E+03 0.87248152E+03 0.00000000E+00 0.0000E+00 0.9000E+01
       -1 -1    0    0    0  501 0.00000000E+00 0.00000000E+00 -.24351788E+01 0.24351788E+01 0.00000000E+00 0.0000E+00 0.9000E+01
       23  2    1    2    0    0 0.00000000E+00 0.00000000E+00 0.87004634E+03 0.87491670E+03 0.92187819E+02 0.0000E+00 0.0000E+00
      -13  1    3    3    0    0 -.59032997E+01 0.13237528E+00 0.11691170E+01 0.60194107E+01 0.00000000E+00 0.0000E+00 0.9000E+01
       13  1    3    3    0    0 0.59032997E+01 -.13237528E+00 0.86887723E+03 0.86889729E+03 0.00000000E+00 0.0000E+00 0.9000E+01
#aMCatNLO 1  0  0  2  1 0.22655940D+02 0.00000000D+00  -5  5  0 0.00000000D+00 0.00000000D+00 0.00000000D+00 0.00000000D+00 0.00000000D+00
  <mgrwgt>
 0.6349497986D+03    9    2    0
 0.460939096366523D+02 0.000000000000000D+00 0.000000000000000D+00 0.460939096366523D+02
 0.460939096366523D+02 0.000000000000000D+00 0.000000000000000D+00 -.460939096366523D+02
 0.460939096366523D+02 -.590329974359337D+01 0.132375278720932D+00 -.457141338593956D+02
 0.460939096366523D+02 0.590329974359337D+01 -.132375278720932D+00 0.457141338593956D+02
 0.000000000000000D+00 -.000000000000000D+00 -.000000000000000D+00 -.000000000000000D+00
 0.517217663429764D+02 0.000000000000000D+00 0.000000000000000D+00 0.517217663429764D+02
 0.692860117637586D+02 0.000000000000000D+00 0.000000000000000D+00 -.692860117637586D+02
 0.458894864121213D+02 0.398394912412626D+01 0.437124730368788D+00 -.457141338593956D+02
 0.484555797676534D+02 0.160663766923994D+02 0.180875876240433D+00 0.457141338593956D+02
 0.266627119269603D+02 -.200503258165257D+02 -.618000606609221D+00 -.175642454207822D+02
0.303234405521D-01 0.000000000000D+00 0.000000000000D+00 0.126237094611D+01 0.000000000000D+00  5 1 -1 -13 13 21 0 0.13422793D+00 0.37464289D-03 0.34866471D+02 0.84985940D+04 0.84985940D+04 0.12167246D+01  1  2  2  2  5  2       -1 0.410976478716D+03
0.696457487573D-02 0.000000000000D+00 -.116449996065D-03 0.126237094611D+01 0.000000000000D+00  5 1 -1 -13 13 21 2 0.13422793D+00 0.37464289D-03 0.34866471D+02 0.84985940D+04 0.84985940D+04 0.12167246D+01  1  2  3  2  5  2       -1 0.126897408960D+03
0.100865614558D-02 0.000000000000D+00 0.000000000000D+00 0.126237094611D+01 0.000000000000D+00  5 1 -1 -13 13 21 2 0.13422793D+00 0.37464289D-03 0.34866471D+02 0.84985940D+04 0.84985940D+04 0.12167246D+01  1  2 15  2  5  2       -1 0.202379364475D+02
0.230921370991D-01 0.000000000000D+00 0.000000000000D+00 0.126237094611D+01 0.000000000000D+00  5 1 -1 -13 13 21 2 0.13422793D+00 0.63190140D-03 0.40270658D+03 0.89009915D+04 0.89009915D+04 0.12146081D+01  1  2 12  2  5  2       -1 0.228039816506D+03
-.233252747173D-01 0.000000000000D+00 0.000000000000D+00 0.126237094611D+01 0.000000000000D+00  5 1 -1 -13 13 21 2 0.13422793D+00 0.37464289D-03 0.34866471D+02 0.84985940D+04 0.84985940D+04 0.12167246D+01  1  2  4  2  5  2       -1 -.468004313875D+03
0.139454309370D-01 0.000000000000D+00 -.103244905510D-01 0.126237094611D+01 0.000000000000D+00  5 1 -1 -13 13 21 2 0.13422793D+00 0.63394662D-03 0.34866471D+02 0.84985940D+04 0.84985940D+04 0.12167246D+01  1  2  5  2  5  2       -1 -.421140560519D+03
-.633751059935D-02 0.000000000000D+00 0.904425431776D-02 0.126237094611D+01 0.000000000000D+00  5 1 -1 -13 13 21 2 0.13422793D+00 0.37464289D-03 0.34866471D+02 0.84985940D+04 0.84985940D+04 0.12167246D+01  1  2  6  2  5  2       -1 0.870204700913D+03
0.134927612382D-02 0.000000000000D+00 0.000000000000D+00 0.126237094611D+01 0.000000000000D+00  5 1 21 -13 13 1 2 0.13422793D+00 0.63190140D-03 0.40270658D+03 0.89009915D+04 0.89009915D+04 0.12146081D+01  1  2 12  4  5  2       -1 0.269069607462D+03
0.131117580126D-02 0.000000000000D+00 -.606287090230D-03 0.126237094611D+01 0.000000000000D+00  5 1 21 -13 13 1 2 0.13422793D+00 0.63394662D-03 0.34866471D+02 0.84985940D+04 0.84985940D+04 0.12167246D+01  1  2  5  4  5  2       -1 -.401331276019D+03
  </mgrwgt>
  </event>
  <event npLO=' -1 ' npNLO=' 0 '>
  6     66 0.13120323E+02 0.86786814E+02 0.75467711E-02 0.11831493E+00
        1 -1    0    0  501    0 0.00000000E+00 0.00000000E+00 0.51507051E+03 0.51507051E+03 0.00000000E+00 0.0000E+00 0.9000E+01
       21 -1    0    0  502  501 0.00000000E+00 0.00000000E+00 -.95288973E+01 0.95288973E+01 0.00000000E+00 0.0000E+00 0.9000E+01
       23  2    1    2    0    0 -.94979923E+01 -.20177498E+02 0.48818360E+03 0.49633912E+03 0.86786814E+02 0.0000E+00 0.0000E+00
      -11  1    3    3    0    0 -.38321003E+02 -.36191857E+02 0.36634690E+03 0.37011945E+03 0.00000000E+00 0.0000E+00 0.9000E+01
       11  1    3    3    0    0 0.28823011E+02 0.16014359E+02 0.12183669E+03 0.12621967E+03 0.00000000E+00 0.0000E+00 0.9000E+01
        1  1    1    2  502    0 0.94979923E+01 0.20177498E+02 0.17358014E+02 0.28260289E+02 0.00000000E+00 0.0000E+00 0.9000E+01
#aMCatNLO 2  0  0  2  1 0.23148276D+02 0.00000000D+00  -5  5  0 0.00000000D+00 0.00000000D+00 0.00000000D+00 0.00000000D+00 0.00000000D+00
  <mgrwgt>
 0.2977427548D+03    2    2    0
 0.433934067512188D+02 0.000000000000000D+00 0.000000000000000D+00 0.433934067512188D+02
 0.433934067512188D+02 0.000000000000000D+00 0.000000000000000D+00 -.433934067512188D+02
 0.433934067512188D+02 -.330638977543519D+02 -.250236831921084D+02 0.127899059522530D+02
 0.433934067512188D+02 0.330638977543519D+02 0.250236831921084D+02 -.127899059522530D+02
 0.000000000000000D+00 0.000000000000000D+00 0.000000000000000D+00 -.000000000000000D+00
 0.468791395043999D+02 0.000000000000000D+00 0.000000000000000D+00 0.468791395043999D+02
 0.104695906092721D+03 0.000000000000000D+00 0.000000000000000D+00 -.104695906092721D+03
 0.542395748213182D+02 -.383210029507439D+02 -.361918570313680D+02 0.127899059522530D+02
 0.353667546372550D+02 0.288230106377744D+02 0.160143590904870D+02 -.127899059522530D+02
 0.619687161385474D+02 0.949799231296948D+01 0.201774979408810D+02 -.578167665883209D+02
-.653424702584D-02 0.000000000000D+00 0.000000000000D+00 0.525910096202D-01 0.000000000000D+00  5 1 21 -11 11 1 2 0.73349548D-01 0.15837447D-02 0.29151551D+04 0.80292943D+04 0.80292943D+04 0.12193397D+01  1  2 13  4  5  2       -1 -.792015188041D+03
0.887303755108D-02 0.000000000000D+00 0.000000000000D+00 0.525910096202D-01 0.160918083091D-03  5 1 21 -11 11 1 2 0.79241617D-01 0.14659842D-02 0.29151551D+04 0.80292943D+04 0.80292943D+04 0.12193397D+01  1  2  1  4  5  2       -1 0.108975794287D+04
  </mgrwgt>
  </event>
  <event npLO=' -1 ' npNLO=' 0 '>
  5     66 0.13120323E+02 0.53759016E+02 0.75467711E-02 0.11706936E+00
        3 -1    0    0  501    0 0.00000000E+00 0.00000000E+00 0.43319514E+03 0.43319514E+03 0.00000000E+00 0.0000E+00 0.9000E+01
       -3 -1    0    0    0  501 0.00000000E+00 0.00000000E+00 -.48824246E+01 0.48824246E+01 0.00000000E+00 0.0000E+00 0.9000E+01
       23  2    1    2    0    0 0.00000000E+00 0.00000000E+00 0.42831272E+03 0.43807757E+03 0.91979185E+02 0.0000E+00 0.0000E+00
      -11  1    3    3    0    0 -.14950107E+02 -.13337459E+02 0.16994726E+02 0.26271928E+02 0.00000000E+00 0.0000E+00 0.9000E+01
       11  1    3    3    0    0 0.14950107E+02 0.13337459E+02 0.41131799E+03 0.41180564E+03 0.00000000E+00 0.0000E+00 0.9000E+01
#aMCatNLO 1  0  0  2  1 0.35935933D+02 0.00000000D+00  -5  5  0 0.00000000D+00 0.00000000D+00 0.00000000D+00 0.00000000D+00 0.00000000D+00
  <mgrwgt>
 0.1053297893D+03    9    2    0
 0.459895926693294D+02 0.000000000000000D+00 0.000000000000000D+00 0.459895926693294D+02
 0.459895926693294D+02 0.000000000000000D+00 0.000000000000000D+00 -.459895926693294D+02
 0.459895926693294D+02 -.149501067263263D+02 -.133374592773282D+02 -.413962452740331D+02
 0.459895926693294D+02 0.149501067263263D+02 0.133374592773282D+02 0.413962452740331D+02
 0.000000000000000D+00 0.000000000000000D+00 -.000000000000000D+00 -.000000000000000D+00
 0.586896019931221D+02 0.000000000000000D+00 0.000000000000000D+00 0.586896019931221D+02
 0.664204165622257D+02 0.000000000000000D+00 0.000000000000000D+00 -.664204165622257D+02
 0.525524352862608D+02 -.295819650123109D+02 -.131535804152001D+02 -.413962452740331D+02
 0.435746457513786D+02 0.165130142211089D+01 0.135045856353893D+02 0.413962452740331D+02
 0.289829375177084D+02 0.279306635902000D+02 -.351005220189231D+00 -.773081456910356D+01
0.248391601595D-01 0.000000000000D+00 0.000000000000D+00 0.133789185784D+01 0.000000000000D+00  5 3 -3 -11 11 21 0 0.66645407D-01 0.75114225D-03 0.40139351D+03 0.84601705D+04 0.84601705D+04 0.12169326D+01  1  2  2  2  5  2       -3 0.814940601385D+02
-.221471037175D-03 0.000000000000D+00 -.953889153137D-04 0.133789185784D+01 0.000000000000D+00  5 3 -3 -11 11 21 2 0.66645407D-01 0.75114225D-03 0.40139351D+03 0.84601705D+04 0.84601705D+04 0.12169326D+01  1  2  3  2  5  2       -3 -.248880202797D+01
0.837500149380D-03 0.000000000000D+00 0.000000000000D+00 0.133789185784D+01 0.000000000000D+00  5 3 -3 -11 11 21 2 0.66645407D-01 0.75114225D-03 0.40139351D+03 0.84601705D+04 0.84601705D+04 0.12169326D+01  1  2 15  2  5  2       -3 0.406918069483D+01
0.820044316406D-02 0.000000000000D+00 0.000000000000D+00 0.133789185784D+01 0.000000000000D+00  5 3 -3 -11 11 21 2 0.66645407D-01 0.13844135D-02 0.13657664D+04 0.92404157D+04 0.92404157D+04 0.12129043D+01  1  2 12  2  5  2       -3 0.169787622879D+02
-.902833883891D-02 0.000000000000D+00 0.000000000000D+00 0.133789185784D+01 0.000000000000D+00  5 3 -3 -11 11 21 2 0.66645407D-01 0.75114225D-03 0.40139351D+03 0.84601705D+04 0.84601705D+04 0.12169326D+01  1  2  4  2  5  2       -3 -.438661917097D+02
0.242722870534D-02 0.000000000000D+00 -.788984122176D-02 0.133789185784D+01 0.000000000000D+00  5 3 -3 -11 11 21 2 0.66645407D-01 0.13869536D-02 0.40139351D+03 0.84601705D+04 0.84601705D+04 0.12169326D+01  1  2  5  2  5  2       -3 -.446440864484D+02
0.309325964108D-02 0.000000000000D+00 0.660780657133D-02 0.133789185784D+01 0.000000000000D+00  5 3 -3 -11 11 21 2 0.66645407D-01 0.75114225D-03 0.40139351D+03 0.84601705D+04 0.84601705D+04 0.12169326D+01  1  2  6  2  5  2       -3 0.112892700181D+03
0.547314069705D-03 0.000000000000D+00 0.000000000000D+00 0.133789185784D+01 0.000000000000D+00  5 3 21 -11 11 3 2 0.66645407D-01 0.13844135D-02 0.13657664D+04 0.92404157D+04 0.92404157D+04 0.12129043D+01  1  2 12  4  5  2       -3 0.226369447605D+02
0.597377351839D-03 0.000000000000D+00 -.527991984060D-03 0.133789185784D+01 0.000000000000D+00  5 3 21 -11 11 3 2 0.66645407D-01 0.13869536D-02 0.40139351D+03 0.84601705D+04 0.84601705D+04 0.12169326D+01  1  2  5  4  5  2       -3 -.417427785492D+02
  </mgrwgt>
  </event>
  <event npLO=' -1 ' npNLO=' 0 '>
  5     66 0.13120323E+02 0.42972887E+02 0.75467711E-02 0.11784920E+00
        1 -1    0    0  501    0 0.00000000E+00 0.00000000E+00 0.15132089E+02 0.15132089E+02 0.00000000E+00 0.0000E+00 0.9000E+01
       -1 -1    0    0    0  501 0.00000000E+00 0.00000000E+00 -.13736371E+03 0.13736371E+03 0.00000000E+00 0.0000E+00 0.9000E+01
       23  2    1    2    0    0 0.00000000E+00 0.00000000E+00 -.12223162E+03 0.15249580E+03 0.91183329E+02 0.0000E+00 0.0000E+00
      -11  1    3    3    0    0 -.25332996E+02 -.29714326E+02 -.10047602E+03 0.10779671E+03 0.00000000E+00 0.0000E+00 0.9000E+01
       11  1    3    3    0    0 0.25332996E+02 0.29714326E+02 -.21755607E+02 0.44699086E+02 0.00000000E+00 0.0000E+00 0.9000E+01
#aMCatNLO 1  0  0  2  1 0.54749622D+02 0.00000000D+00  -5  5  0 0.00000000D+00 0.00000000D+00 0.00000000D+00 0.00000000D+00 0.00000000D+00
  <mgrwgt>
 0.2572697047D+03    6    2    0
 0.455916643798034D+02 0.000000000000000D+00 0.000000000000000D+00 0.455916643798034D+02
 0.455916643798034D+02 0.000000000000000D+00 0.000000000000000D+00 -.455916643798034D+02
 0.455916643798034D+02 -.253329962658321D+02 -.297143255256755D+02 -.235350381276547D+02
 0.455916643798034D+02 0.253329962658321D+02 0.297143255256755D+02 0.235350381276547D+02
 0.000000000000000D+00 -.000000000000000D+00 0.000000000000000D+00 0.000000000000000D+00
 0.810480615264910D+02 0.000000000000000D+00 0.000000000000000D+00 0.810480615264910D+02
 0.470201819226911D+02 0.000000000000000D+00 0.000000000000000D+00 -.470201819226911D+02
 0.442140700481760D+02 -.197988971872718D+02 -.317645972856998D+02 -.235350381276547D+02
 0.477602445790825D+02 0.310856212695897D+02 0.275830943308986D+02 0.235350381276547D+02
 0.360939288219236D+02 -.112867240823179D+02 0.418150295480124D+01 0.340278796037999D+02
0.278325908596D-01 0.000000000000D+00 0.000000000000D+00 0.122458821491D+01 0.000000000000D+00  5 1 -1 -11 11 21 0 0.23280136D-02 0.21132879D-01 0.15247018D+04 0.83143994D+04 0.83143994D+04 0.12177312D+01  1  2  2  2  5  2       -1 0.258798763482D+03
-.150111795434D-02 0.000000000000D+00 -.106884477390D-03 0.122458821491D+01 0.000000000000D+00  5 1 -1 -11 11 21 2 0.23280136D-02 0.21132879D-01 0.15247018D+04 0.83143994D+04 0.83143994D+04 0.12177312D+01  1  2  3  2  5  2       -1 -.231976723794D+02
0.131942051520D-02 0.000000000000D+00 0.000000000000D+00 0.122458821491D+01 0.000000000000D+00  5 1 -1 -11 11 21 2 0.23280136D-02 0.21132879D-01 0.15247018D+04 0.83143994D+04 0.83143994D+04 0.12177312D+01  1  2 15  2  5  2       -1 0.181925963017D+02
0.186128749131D-02 0.000000000000D+00 0.000000000000D+00 0.122458821491D+01 0.000000000000D+00  5 1 -1 -11 11 21 2 0.23280136D-02 0.38744914D-01 0.20713906D+04 0.84592746D+04 0.84592746D+04 0.12169374D+01  1  2 12  2  5  2       -1 0.969446797819D+01
-.919083589668D-03 0.000000000000D+00 0.000000000000D+00 0.122458821491D+01 0.000000000000D+00  5 1 -1 -11 11 21 2 0.23280136D-02 0.21132879D-01 0.15247018D+04 0.83143994D+04 0.83143994D+04 0.12177312D+01  1  2  4  2  5  2       -1 -.126726214439D+02
0.123274594827D-03 0.000000000000D+00 0.000000000000D+00 0.122458821491D+01 0.000000000000D+00  5 1 21 -11 11 1 2 0.23280136D-02 0.38744914D-01 0.20713906D+04 0.84592746D+04 0.84592746D+04 0.12169374D+01  1  2 12  4  5  2       -1 0.645417076549D+01
  </mgrwgt>
  </event>
  <event npLO=' -1 ' npNLO=' 0 '>
  5     66 0.13120323E+02 0.45501071E+02 0.75467711E-02 0.11876582E+00
        1 -1    0    0  501    0 0.00000000E+00 0.00000000E+00 0.43371327E+02 0.43371327E+02 0.00000000E+00 0.0000E+00 0.9000E+01
       -1 -1    0    0    0  501 0.00000000E+00 0.00000000E+00 -.43675860E+02 0.43675860E+02 0.00000000E+00 0.0000E+00 0.9000E+01
       23  2    1    2    0    0 0.00000000E+00 0.00000000E+00 -.30453304E+00 0.87047188E+02 0.87046655E+02 0.0000E+00 0.0000E+00
      -11  1    3    3    0    0 0.87077315E+01 0.13443671E+02 0.40316774E+02 0.43382014E+02 0.00000000E+00 0.0000E+00 0.9000E+01
       11  1    3    3    0    0 -.87077315E+01 -.13443671E+02 -.40621307E+02 0.43665174E+02 0.00000000E+00 0.0000E+00 0.9000E+01
#aMCatNLO 1  0  0  1  2 0.85575629D+01 0.00000000D+00  -5  5  0 0.00000000D+00 0.00000000D+00 0.00000000D+00 0.00000000D+00 0.00000000D+00
  <mgrwgt>
 0.3169519891D+03   11    2    0
 0.435233274224469D+02 0.000000000000000D+00 0.000000000000000D+00 0.435233274224469D+02
 0.435233274224469D+02 0.000000000000000D+00 0.000000000000000D+00 -.435233274224469D+02
 0.435233274224469D+02 0.870773148523829D+01 0.134436707352857D+02 0.404687924142015D+02
 0.435233274224469D+02 -.870773148523829D+01 -.134436707352857D+02 -.404687924142015D+02
 0.000000000000000D+00 -.000000000000000D+00 -.000000000000000D+00 0.000000000000000D+00
 0.525013434421884D+02 0.000000000000000D+00 0.000000000000000D+00 0.525013434421884D+02
 0.453945114234398D+02 0.000000000000000D+00 0.000000000000000D+00 -.453945114234398D+02
 0.448189527888357D+02 0.124082810446565D+02 0.147326145385320D+02 0.404687924142015D+02
 0.425709141350549D+02 -.510134950254451D+01 -.121875265777506D+02 -.404687924142015D+02
 0.105059879417376D+02 -.730693154211195D+01 -.254508796078145D+01 0.710683201874861D+01
0.277639550730D-01 0.000000000000D+00 0.000000000000D+00 0.971183969351D-01 0.000000000000D+00  5 1 -1 -11 11 21 0 0.66725119D-02 0.67193631D-02 0.25655687D+03 0.75771201D+04 0.75771201D+04 0.12220269D+01  1  2  2  1  5  1        1 0.338195527320D+03
0.331524599645D-03 0.000000000000D+00 -.106620897898D-03 0.971183969351D-01 0.000000000000D+00  5 1 -1 -11 11 21 2 0.66725119D-02 0.67193631D-02 0.25655687D+03 0.75771201D+04 0.75771201D+04 0.12220269D+01  1  2  3  1  5  1        1 -.535614643070D+00
0.804223715695D-03 0.000000000000D+00 0.000000000000D+00 0.971183969351D-01 0.000000000000D+00  5 1 -1 -11 11 21 2 0.66725119D-02 0.67193631D-02 0.25655687D+03 0.75771201D+04 0.75771201D+04 0.12220269D+01  1  2 15  1  5  1        1 0.146293463516D+02
0.575033745403D-01 0.000000000000D+00 0.000000000000D+00 0.971183969351D-01 0.000000000000D+00  5 1 -1 -11 11 21 2 0.83949659D-02 0.67193631D-02 0.40423810D+03 0.76369888D+04 0.76369888D+04 0.12216609D+01  1  2 12  1  5  1        1 0.770358787689D+03
-.620507584631D-01 0.000000000000D+00 0.000000000000D+00 0.971183969351D-01 0.000000000000D+00  5 1 -1 -11 11 21 2 0.66725119D-02 0.67193631D-02 0.25655687D+03 0.75771201D+04 0.75771201D+04 0.12220269D+01  1  2  4  1  5  1        1 -.112874318330D+04
-.624750428145D-01 0.000000000000D+00 -.209997951772D-01 0.971183969351D-01 0.000000000000D+00  5 1 -1 -11 11 21 2 0.83809585D-02 0.67193631D-02 0.25655687D+03 0.75771201D+04 0.75771201D+04 0.12220269D+01  1  2  5  1  5  1        1 -.179334944933D+04
0.660720923499D-01 0.000000000000D+00 0.204657027210D-01 0.971183969351D-01 0.000000000000D+00  5 1 -1 -11 11 21 2 0.66725119D-02 0.67193631D-02 0.25655687D+03 0.75771201D+04 0.75771201D+04 0.12220269D+01  1  2  6  1  5  1        1 0.246227647952D+04
0.643978836127D-04 0.000000000000D+00 0.000000000000D+00 0.971183969351D-01 0.130616857577D-01  5 1 -1 -11 11 21 2 0.80489213D-02 0.70082465D-02 0.40423810D+03 0.76369888D+04 0.76369888D+04 0.12216609D+01  1  2 11  1  5  1        1 0.858468288841D+00
0.182708581116D-02 0.000000000000D+00 0.000000000000D+00 0.971183969351D-01 0.000000000000D+00  5 21 -1 -11 11 -1 2 0.83949659D-02 0.67193631D-02 0.40423810D+03 0.76369888D+04 0.76369888D+04 0.12216609D+01  1  2 12  3  5  1        1 0.301584682487D+03
-.167220314761D-02 0.000000000000D+00 -.663602965367D-03 0.971183969351D-01 0.000000000000D+00  5 21 -1 -11 11 -1 2 0.83809585D-02 0.67193631D-02 0.25655687D+03 0.75771201D+04 0.75771201D+04 0.12220269D+01  1  2  5  3  5  1        1 -.648663446398D+03
0.204513674412D-05 0.000000000000D+00 0.000000000000D+00 0.971183969351D-01 0.375240091186D-03  5 21 -1 -11 11 -1 2 0.80489213D-02 0.70082465D-02 0.40423810D+03 0.76369888D+04 0.76369888D+04 0.12216609D+01  1  2 11  3  5  1        1 0.340391096857D+00
  </mgrwgt>
  </event>
  <event npLO=' -1 ' npNLO=' 0 '>
  5     66 0.13120323E+02 0.92196779E+02 0.75467711E-02 0.11015015E+00
        1 -1    0    0  501    0 0.00000000E+00 0.00000000E+00 0.87492654E+03 0.87492654E+03 0.00000000E+00 0.0000E+00 0.9000E+01
       -1 -1    0    0    0  501 0.00000000E+00 0.00000000E+00 -.24288456E+01 0.24288456E+01 0.00000000E+00 0.0000E+00 0.9000E+01
       23  2    1    2    0    0 0.00000000E+00 0.00000000E+00 0.87249769E+03 0.87735539E+03 0.92196779E+02 0.0000E+00 0.0000E+00
      -11  1    3    3    0    0 0.90298452E+00 -.32961422E+02 0.12968940E+03 0.13381559E+03 0.00000000E+00 0.0000E+00 0.9000E+01
       11  1    3    3    0    0 -.90298452E+00 0.32961422E+02 0.74280829E+03 0.74353980E+03 0.00000000E+00 0.0000E+00 0.9000E+01
#aMCatNLO 1  0  0  1  1 0.19085754D+03 0.00000000D+00  -5  5  0 0.00000000D+00 0.00000000D+00 0.00000000D+00 0.00000000D+00 0.00000000D+00
  <mgrwgt>
 0.5185985279D+03    3    2    0
 0.460983895496396D+02 0.000000000000000D+00 0.000000000000000D+00 0.460983895496396D+02
 0.460983895496396D+02 0.000000000000000D+00 0.000000000000000D+00 -.460983895496396D+02
 0.460983895496396D+02 0.902984519132084D+00 -.329614222964071D+02 -.322147602540582D+02
 0.460983895496396D+02 -.902984519132084D+00 0.329614222964071D+02 0.322147602540582D+02
 0.000000000000000D+00 0.000000000000000D+00 -.000000000000000D+00 -.000000000000000D+00
 0.106367700066815D+03 0.000000000000000D+00 0.000000000000000D+00 0.106367700066815D+03
 0.170140845905845D+03 0.000000000000000D+00 0.000000000000000D+00 -.170140845905845D+03
 0.542165234556752D+02 -.419598391841209D+02 -.118748698113305D+02 -.322147602540582D+02
 0.920541960576160D+02 -.599331899355353D+02 0.620015885098003D+02 0.322147602540582D+02
 0.130237826459369D+03 0.101893029119656D+03 -.501267186984698D+02 -.637731458390299D+02
0.384621471291D-01 0.000000000000D+00 0.000000000000D+00 0.930077765956D+00 0.000000000000D+00  5 1 -1 -11 11 21 0 0.13460408D+00 0.37366856D-03 0.10872707D+04 0.85002461D+04 0.85002461D+04 0.12167157D+01  1  2  2  1  5  1        1 0.520828705715D+03
-.184510989199D-02 0.000000000000D+00 -.147704772292D-03 0.930077765956D+00 0.000000000000D+00  5 1 -1 -11 11 21 2 0.13460408D+00 0.37366856D-03 0.10872707D+04 0.85002461D+04 0.85002461D+04 0.12167157D+01  1  2  3  1  5  1        1 -.430770989322D+02
0.203760363494D-02 0.000000000000D+00 0.000000000000D+00 0.930077765956D+00 0.000000000000D+00  5 1 -1 -11 11 21 2 0.13460408D+00 0.37366856D-03 0.10872707D+04 0.85002461D+04 0.85002461D+04 0.12167157D+01  1  2 15  1  5  1        1 0.408469210735D+02
  </mgrwgt>
  </event>
  <event npLO=' -1 ' npNLO=' 0 '>
  5     66 0.13120323E+02 0.65613234E+02 0.75467711E-02 0.11665326E+00
        1 -1    0    0  501    0 0.00000000E+00 0.00000000E+00 0.20199774E+04 0.20199774E+04 0.00000000E+00 0.0000E+00 0.9000E+01
       -1 -1    0    0    0  501 0.00000000E+00 0.00000000E+00 -.10021064E+01 0.10021064E+01 0.00000000E+00 0.0000E+00 0.9000E+01
       23  2    1    2    0    0 0.00000000E+00 0.00000000E+00 0.20189753E+04 0.20209795E+04 0.89982938E+02 0.0000E+00 0.0000E+00
      -11  1    3    3    0    0 -.53978665E+01 -.37015449E+02 0.15709557E+04 0.15714010E+04 0.00000000E+00 0.0000E+00 0.9000E+01
       11  1    3    3    0    0 0.53978665E+01 0.37015449E+02 0.44801965E+03 0.44957857E+03 0.00000000E+00 0.0000E+00 0.9000E+01
#aMCatNLO 1  0  0  2  1 0.44590943D+02 0.00000000D+00  -5  5  0 0.00000000D+00 0.00000000D+00 0.00000000D+00 0.00000000D+00 0.00000000D+00
  <mgrwgt>
 0.3397643440D+03    7    2    0
 0.449914688347737D+02 0.000000000000000D+00 0.000000000000000D+00 0.449914688347737D+02
 0.449914688347737D+02 0.000000000000000D+00 0.000000000000000D+00 -.449914688347737D+02
 0.449914688347737D+02 -.539786648262760D+01 -.370154492885974D+02 0.249990363676165D+02
 0.449914688347737D+02 0.539786648262760D+01 0.370154492885974D+02 -.249990363676165D+02
 0.000000000000000D+00 0.000000000000000D+00 -.000000000000000D+00 -.000000000000000D+00
 0.565579619947138D+02 0.000000000000000D+00 0.000000000000000D+00 0.565579619947138D+02
 0.103548984690645D+03 0.000000000000000D+00 0.000000000000000D+00 -.103548984690645D+03
 0.380843737598737D+02 -.166092885316472D+02 -.234435330068835D+02 0.249990363676165D+02
 0.603592224961004D+02 -.881963678639761D+01 0.542263582400696D+02 -.249990363676165D+02
 0.616633504293849D+02 0.254289253180448D+02 -.307828252331861D+02 -.469910226959314D+02
0.608975932790D-01 0.000000000000D+00 0.000000000000D+00 0.445445888372D+00 0.000000000000D+00  5 1 -1 -11 11 21 0 0.31076576D+00 0.15417021D-03 0.13992804D+04 0.80969291D+04 0.80969291D+04 0.12189524D+01  1  2  2  2  5  2       -1 0.459228995004D+03
-.324299942062D-02 0.000000000000D+00 -.233862792896D-03 0.445445888372D+00 0.000000000000D+00  5 1 -1 -11 11 21 2 0.31076576D+00 0.15417021D-03 0.13992804D+04 0.80969291D+04 0.80969291D+04 0.12189524D+01  1  2  3  2  5  2       -1 -.409371788730D+02
0.278311054199D-02 0.000000000000D+00 0.000000000000D+00 0.445445888372D+00 0.000000000000D+00  5 1 -1 -11 11 21 2 0.31076576D+00 0.15417021D-03 0.13992804D+04 0.80969291D+04 0.80969291D+04 0.12189524D+01  1  2 15  2  5  2       -1 0.311840915957D+02
0.285801697881D-01 0.000000000000D+00 0.000000000000D+00 0.445445888372D+00 0.000000000000D+00  5 1 -1 -11 11 21 2 0.31076576D+00 0.44604608D-03 0.38190828D+04 0.96911416D+04 0.96911416D+04 0.12107469D+01  1  2 12  2  5  2       -1 0.764212885202D+02
-.136904460434D-01 0.000000000000D+00 -.186682937857D-01 0.445445888372D+00 0.000000000000D+00  5 1 -1 -11 11 21 2 0.31076576D+00 0.46987705D-03 0.13992804D+04 0.80969291D+04 0.80969291D+04 0.12189524D+01  1  2  5  2  5  2       -1 -.116789081988D+03
0.343092695537D-02 0.000000000000D+00 0.000000000000D+00 0.445445888372D+00 0.000000000000D+00  5 1 21 -11 11 1 2 0.31076576D+00 0.44604608D-03 0.38190828D+04 0.96911416D+04 0.96911416D+04 0.12107469D+01  1  2 12  4  5  2       -1 0.191107761784D+03
-.836448162384D-03 0.000000000000D+00 -.237419375087D-02 0.445445888372D+00 0.000000000000D+00  5 1 21 -11 11 1 2 0.31076576D+00 0.46987705D-03 0.13992804D+04 0.80969291D+04 0.80969291D+04 0.12189524D+01  1  2  5  4  5  2       -1 -.260451531994D+03
  </mgrwgt>
  </event>
  <event npLO=' -1 ' npNLO=' 0 '>
  5     66 0.13120323E+02 0.54319856E+02 0.75467711E-02 0.11793357E+00
        5 -1    0    0  501    0 0.00000000E+00 0.00000000E+00 0.30504023E+03 0.30504023E+03 0.00000000E+00 0.0000E+00 0.9000E+01
       -5 -1    0    0    0  501 0.00000000E+00 0.00000000E+00 -.66249684E+01 0.66249684E+01 0.00000000E+00 0.0000E+00 0.9000E+01
       23  2    1    2    0    0 0.00000000E+00 0.00000000E+00 0.29841526E+03 0.31166520E+03 0.89908439E+02 0.0000E+00 0.0000E+00
      -11  1    3    3    0    0 0.11776916E+02 -.71658790E+01 0.88322852E+00 0.13813967E+02 0.00000000E+00 0.0000E+00 0.9000E+01
       11  1    3    3    0    0 -.11776916E+02 0.71658790E+01 0.29753203E+03 0.29785123E+03 0.00000000E+00 0.0000E+00 0.9000E+01
#aMCatNLO 1  0  0  2  1 0.51421368D+02 0.00000000D+00  -5  5  0 0.00000000D+00 0.00000000D+00 0.00000000D+00 0.00000000D+00 0.00000000D+00
  <mgrwgt>
 0.2210233565D+02    6    2    0
 0.449542197378133D+02 0.000000000000000D+00 0.000000000000000D+00 0.449542197378133D+02
 0.449542197378133D+02 0.000000000000000D+00 0.000000000000000D+00 -.449542197378133D+02
 0.449542197378133D+02 0.117769163254951D+02 -.716587902118015D+01 -.427882728320705D+02
 0.449542197378133D+02 -.117769163254951D+02 0.716587902118015D+01 0.427882728320705D+02
 0.000000000000000D+00 -.000000000000000D+00 0.000000000000000D+00 0.000000000000000D+00
 0.762439157776154D+02 0.000000000000000D+00 0.000000000000000D+00 0.762439157776154D+02
 0.481971972009005D+02 0.000000000000000D+00 0.000000000000000D+00 -.481971972009005D+02
 0.480740426028461D+02 0.205898896555368D+02 -.750557953800944D+01 -.427882728320705D+02
 0.434652369810884D+02 -.340055526795993D+01 0.684300794534315D+01 0.427882728320705D+02
 0.329018333945813D+02 -.171893343875769D+02 0.662571592666294D+00 0.280467185767149D+02
0.196588358649D-01 0.000000000000D+00 0.000000000000D+00 0.836782306306D+00 0.000000000000D+00  5 5 -5 -11 11 21 0 0.46929266D-01 0.10192259D-02 0.19004558D+03 0.80835275D+04 0.80835275D+04 0.12190288D+01  1  2  2  2  5  2       -5 0.189847744484D+02
0.763129234665D-03 0.000000000000D+00 -.754951060116D-04 0.836782306306D+00 0.000000000000D+00  5 5 -5 -11 11 21 2 0.46929266D-01 0.10192259D-02 0.19004558D+03 0.80835275D+04 0.80835275D+04 0.12190288D+01  1  2  3  2  5  2       -5 0.688835352103D+00
0.649203777705D-03 0.000000000000D+00 0.000000000000D+00 0.836782306306D+00 0.000000000000D+00  5 5 -5 -11 11 21 2 0.46929266D-01 0.10192259D-02 0.19004558D+03 0.80835275D+04 0.80835275D+04 0.12190288D+01  1  2 15  2  5  2       -5 0.931658238991D+00
0.162103239611D-02 0.000000000000D+00 0.000000000000D+00 0.836782306306D+00 0.000000000000D+00  5 5 -5 -11 11 21 2 0.46929266D-01 0.18533460D-02 0.54659397D+03 0.83794397D+04 0.83794397D+04 0.12173730D+01  1  2 12  2  5  2       -5 0.956267549332D+00
-.113041935910D-02 0.000000000000D+00 0.000000000000D+00 0.836782306306D+00 0.000000000000D+00  5 5 -5 -11 11 21 2 0.46929266D-01 0.10192259D-02 0.19004558D+03 0.80835275D+04 0.80835275D+04 0.12190288D+01  1  2  4  2  5  2       -5 -.162224026659D+01
0.106076873306D-03 0.000000000000D+00 0.000000000000D+00 0.836782306306D+00 0.000000000000D+00  5 5 21 -11 11 5 2 0.46929266D-01 0.18533460D-02 0.54659397D+03 0.83794397D+04 0.83794397D+04 0.12173730D+01  1  2 12  4  5  2       -5 0.216304033171D+01
  </mgrwgt>
  </event>
  <event npLO=' -1 ' npNLO=' 0 '>
  5     66 0.13120323E+02 0.54538453E+02 0.75467711E-02 0.11755573E+00
        3 -1    0    0  501    0 0.00000000E+00 0.00000000E+00 0.66482334E+01 0.66482334E+01 0.00000000E+00 0.0000E+00 0.9000E+01
       -3 -1    0    0    0  501 0.00000000E+00 0.00000000E+00 -.30633694E+03 0.30633694E+03 0.00000000E+00 0.0000E+00 0.9000E+01
       23  2    1    2    0    0 0.00000000E+00 0.00000000E+00 -.29968870E+03 0.31298517E+03 0.90257397E+02 0.0000E+00 0.0000E+00
      -13  1    3    3    0    0 -.30888682E+02 -.73571673E+00 -.35781547E+02 0.47275480E+02 0.00000000E+00 0.0000E+00 0.9000E+01
       13  1    3    3    0    0 0.30888682E+02 0.73571673E+00 -.26390716E+03 0.26570969E+03 0.00000000E+00 0.0000E+00 0.9000E+01
#aMCatNLO 1  0  0  2  1 0.26968887D+02 0.00000000D+00  -5  5  0 0.00000000D+00 0.00000000D+00 0.00000000D+00 0.00000000D+00 0.00000000D+00
  <mgrwgt>
 0.4178127411D+03    8    2    0
 0.451286986773807D+02 0.000000000000000D+00 0.000000000000000D+00 0.451286986773807D+02
 0.451286986773807D+02 0.000000000000000D+00 0.000000000000000D+00 -.451286986773807D+02
 0.451286986773807D+02 -.308886819080008D+02 -.735716731760383D+00 0.328929703005183D+02
 0.451286986773807D+02 0.308886819080008D+02 0.735716731760383D+00 -.328929703005183D+02
 0.000000000000000D+00 -.000000000000000D+00 0.000000000000000D+00 -.000000000000000D+00
 0.513362293373235D+02 0.000000000000000D+00 0.000000000000000D+00 0.513362293373235D+02
 0.793572610718793D+02 0.000000000000000D+00 0.000000000000000D+00 -.793572610718793D+02
 0.384388960876719D+02 -.198157974843279D+02 -.171330304037725D+01 0.328929703005183D+02
 0.550699998665125D+02 0.441652230301697D+02 -.436422733460913D+00 -.328929703005183D+02
 0.371845944550184D+02 -.243494255458418D+02 0.214972577383816D+01 -.280210317345559D+02
0.401272219818D-01 0.000000000000D+00 0.000000000000D+00 0.637945641833D+00 0.000000000000D+00  5 3 -3 -13 13 21 0 0.10228051D-02 0.47128759D-01 0.95465195D+03 0.81463978D+04 0.81463978D+04 0.12186714D+01  1  2  2  2  5  2       -3 0.166348700107D+03
-.184027082272D-02 0.000000000000D+00 -.154099098150D-03 0.637945641833D+00 0.000000000000D+00  5 3 -3 -13 13 21 2 0.10228051D-02 0.47128759D-01 0.95465195D+03 0.81463978D+04 0.81463978D+04 0.12186714D+01  1  2  3  2  5  2       -3 -.133642539970D+02
0.176456973921D-02 0.000000000000D+00 0.000000000000D+00 0.637945641833D+00 0.000000000000D+00  5 3 -3 -13 13 21 2 0.10228051D-02 0.47128759D-01 0.95465195D+03 0.81463978D+04 0.81463978D+04 0.12186714D+01  1  2 15  2  5  2       -3 0.108640654019D+02
0.316839077888D-01 0.000000000000D+00 0.000000000000D+00 0.637945641833D+00 0.000000000000D+00  5 3 -3 -13 13 21 2 0.10228051D-02 0.94273802D-01 0.19581175D+04 0.87439136D+04 0.87439136D+04 0.12154213D+01  1  2 12  2  5  2       -3 0.402718230221D+02
-.234231396110D-01 0.000000000000D+00 -.118612357025D-01 0.637945641833D+00 0.000000000000D+00  5 3 -3 -13 13 21 2 0.10228051D-02 0.90848124D-01 0.95465195D+03 0.81463978D+04 0.81463978D+04 0.12186714D+01  1  2  5  2  5  2       -3 -.679763010108D+02
0.272824298815D-01 0.000000000000D+00 0.969680217283D-02 0.637945641833D+00 0.000000000000D+00  5 3 -3 -13 13 21 2 0.10228051D-02 0.47128759D-01 0.95465195D+03 0.81463978D+04 0.81463978D+04 0.12186714D+01  1  2  6  2  5  2       -3 0.295970029562D+03
0.237686780433D-02 0.000000000000D+00 0.000000000000D+00 0.637945641833D+00 0.000000000000D+00  5 3 21 -13 13 3 2 0.10228051D-02 0.94273802D-01 0.19581175D+04 0.87439136D+04 0.87439136D+04 0.12154213D+01  1  2 12  4  5  2       -3 0.494486055370D+02
-.979665761286D-03 0.000000000000D+00 -.844498479553D-03 0.637945641833D+00 0.000000000000D+00  5 3 21 -13 13 3 2 0.10228051D-02 0.90848124D-01 0.95465195D+03 0.81463978D+04 0.81463978D+04 0.12186714D+01  1  2  5  4  5  2       -3 -.637499274969D+02
  </mgrwgt>
  </event>
  <event npLO=' -1 ' npNLO=' 0 '>
  5     66 0.13120323E+02 0.71225833E+02 0.75467711E-02 0.11774750E+00
        1 -1    0    0  501    0 0.00000000E+00 0.00000000E+00 0.35162201E+03 0.35162201E+03 0.00000000E+00 0.0000E+00 0.9000E+01
       -1 -1    0    0    0  501 0.00000000E+00 0.00000000E+00 -.59914834E+01 0.59914834E+01 0.00000000E+00 0.0000E+00 0.9000E+01
       23  2    1    2    0    0 0.00000000E+00 0.00000000E+00 0.34563053E+03 0.35761349E+03 0.91798419E+02 0.0000E+00 0.0000E+00
      -13  1    3    3    0    0 -.53114431E+01 0.13928910E+02 0.37018366E+01 0.15359998E+02 0.00000000E+00 0.0000E+00 0.9000E+01
       13  1    3    3    0    0 0.53114431E+01 -.13928910E+02 0.34192869E+03 0.34225349E+03 0.00000000E+00 0.0000E+00 0.9000E+01
#aMCatNLO 1  0  0  1  2 0.12109252D+02 0.00000000D+00  -5  5  0 0.00000000D+00 0.00000000D+00 0.00000000D+00 0.00000000D+00 0.00000000D+00
  <mgrwgt>
 0.5935782573D+03    9    2    0
 0.458992096500804D+02 0.000000000000000D+00 0.000000000000000D+00 0.458992096500804D+02
 0.458992096500804D+02 0.000000000000000D+00 0.000000000000000D+00 -.458992096500804D+02
 0.458992096500804D+02 -.531144310177162D+01 0.139289096712680D+02 -.434109605289763D+02
 0.458992096500804D+02 0.531144310177162D+01 -.139289096712680D+02 0.434109605289763D+02
 0.000000000000000D+00 -.000000000000000D+00 0.000000000000000D+00 0.000000000000000D+00
 0.645466439577009D+02 0.000000000000000D+00 0.000000000000000D+00 0.645466439577009D+02
 0.480239900945626D+02 0.000000000000000D+00 0.000000000000000D+00 -.480239900945626D+02
 0.444407818995708D+02 -.229507757956311D+01 0.923061323535253D+01 -.434109605289763D+02
 0.480615812681925D+02 0.844870363615581D+01 -.188155123985274D+02 0.434109605289763D+02
 0.200682708845003D+02 -.615362605659270D+01 0.958489916317490D+01 0.165226538631382D+02
0.268875684954D-01 0.000000000000D+00 0.000000000000D+00 0.157465628933D+01 0.000000000000D+00  5 1 -1 -13 13 21 0 0.54095694D-01 0.92176668D-03 0.22222595D+03 0.84269498D+04 0.84269498D+04 0.12171132D+01  1  2  2  1  5  1        1 0.373753244571D+03
0.803225694472D-03 0.000000000000D+00 -.103255342682D-03 0.157465628933D+01 0.000000000000D+00  5 1 -1 -13 13 21 2 0.54095694D-01 0.92176668D-03 0.22222595D+03 0.84269498D+04 0.84269498D+04 0.12171132D+01  1  2  3  1  5  1        1 0.881004591226D+01
0.983068566563D-03 0.000000000000D+00 0.000000000000D+00 0.157465628933D+01 0.000000000000D+00  5 1 -1 -13 13 21 2 0.54095694D-01 0.92176668D-03 0.22222595D+03 0.84269498D+04 0.84269498D+04 0.12171132D+01  1  2 15  1  5  1        1 0.202432022163D+02
0.580493749644D-01 0.000000000000D+00 0.000000000000D+00 0.157465628933D+01 0.000000000000D+00  5 1 -1 -13 13 21 2 0.79594707D-01 0.92176668D-03 0.43112741D+03 0.85566872D+04 0.85566872D+04 0.12164122D+01  1  2 12  1  5  1        1 0.723002056654D+03
-.583058758795D-01 0.000000000000D+00 0.000000000000D+00 0.157465628933D+01 0.000000000000D+00  5 1 -1 -13 13 21 2 0.54095694D-01 0.92176668D-03 0.22222595D+03 0.84269498D+04 0.84269498D+04 0.12171132D+01  1  2  4  1  5  1        1 -.120062595425D+04
-.440591842171D-01 0.000000000000D+00 -.133081108961D-01 0.157465628933D+01 0.000000000000D+00  5 1 -1 -13 13 21 2 0.78295513D-01 0.92176668D-03 0.22222595D+03 0.84269498D+04 0.84269498D+04 0.12171132D+01  1  2  5  1  5  1        1 -.117711778029D+04
0.466173567486D-01 0.000000000000D+00 0.124475556270D-01 0.157465628933D+01 0.000000000000D+00  5 1 -1 -13 13 21 2 0.54095694D-01 0.92176668D-03 0.22222595D+03 0.84269498D+04 0.84269498D+04 0.12171132D+01  1  2  6  1  5  1        1 0.189178143526D+04
0.269303898427D-02 0.000000000000D+00 0.000000000000D+00 0.157465628933D+01 0.000000000000D+00  5 21 -1 -13 13 -1 2 0.79594707D-01 0.92176668D-03 0.43112741D+03 0.85566872D+04 0.85566872D+04 0.12164122D+01  1  2 12  3  5  1        1 0.103532469856D+03
-.157305686192D-02 0.000000000000D+00 -.598153281332D-03 0.157465628933D+01 0.000000000000D+00  5 21 -1 -13 13 -1 2 0.78295513D-01 0.92176668D-03 0.22222595D+03 0.84269498D+04 0.84269498D+04 0.12171132D+01  1  2  5  3  5  1        1 -.149800462619D+03
  </mgrwgt>
  </event>
  <event npLO=' -1 ' npNLO=' 0 '>
  5     66 0.13120323E+02 0.94517246E+02 0.75467711E-02 0.11140614E+00
        1 -1    0    0  501    0 0.00000000E+00 0.00000000E+00 0.81528488E+02 0.81528488E+02 0.00000000E+00 0.0000E+00 0.9000E+01
       -1 -1    0    0    0  501 0.00000000E+00 0.00000000E+00 -.27393829E+02 0.27393829E+02 0.00000000E+00 0.0000E+00 0.9000E+01
       23  2    1    2    0    0 0.00000000E+00 0.00000000E+00 0.54134659E+02 0.10892232E+03 0.94517246E+02 0.0000E+00 0.0000E+00
      -11  1    3    3    0    0 0.27947750E+02 0.15998432E+01 0.70945757E+02 0.76268845E+02 0.00000000E+00 0.0000E+00 0.9000E+01
       11  1    3    3    0    0 -.27947750E+02 -.15998432E+01 -.16811098E+02 0.32653472E+02 0.00000000E+00 0.0000E+00 0.9000E+01
#aMCatNLO 1  0  0  2  2 0.13824317D+03 0.00000000D+00  -5  5  0 0.00000000D+00 0.00000000D+00 0.00000000D+00 0.00000000D+00 0.00000000D+00
  <mgrwgt>
 0.3019042797D+03    3    2    0
 0.472586230695807D+02 0.000000000000000D+00 0.000000000000000D+00 0.472586230695807D+02
 0.472586230695807D+02 0.000000000000000D+00 0.000000000000000D+00 -.472586230695807D+02
 0.472586230695807D+02 0.279477504442199D+02 0.159984318041488D+01 0.380754671847686D+02
 0.472586230695807D+02 -.279477504442199D+02 -.159984318041488D+01 -.380754671847686D+02
 0.000000000000000D+00 -.000000000000000D+00 0.000000000000000D+00 0.000000000000000D+00
 0.118027644338711D+03 0.000000000000000D+00 0.000000000000000D+00 0.118027644338711D+03
 0.113486153142150D+03 0.000000000000000D+00 0.000000000000000D+00 -.113486153142150D+03
 0.823376469515924D+02 0.588405256420774D+02 -.432150372711943D+02 0.380754671847686D+02
 0.526683954088403D+02 -.412744359787581D+01 -.361549842061909D+02 -.380754671847686D+02
 0.965077551204283D+02 -.547130820442015D+02 0.793700214773852D+02 0.454149119656186D+01
0.292908486650D-01 0.000000000000D+00 0.000000000000D+00 0.131189264634D+00 0.000000000000D+00  5 1 -1 -11 11 21 0 0.12542844D-01 0.42144352D-02 0.78363625D+03 0.89335098D+04 0.89335098D+04 0.12144417D+01  1  2  2  2  5  2       -1 0.306616269928D+03
-.108471387392D-02 0.000000000000D+00 -.112484571331D-03 0.131189264634D+00 0.000000000000D+00  5 1 -1 -11 11 21 2 0.12542844D-01 0.42144352D-02 0.78363625D+03 0.89335098D+04 0.89335098D+04 0.12144417D+01  1  2  3  2  5  2       -1 -.209731177236D+02
0.105325626143D-02 0.000000000000D+00 0.000000000000D+00 0.131189264634D+00 0.000000000000D+00  5 1 -1 -11 11 21 2 0.12542844D-01 0.42144352D-02 0.78363625D+03 0.89335098D+04 0.89335098D+04 0.12144417D+01  1  2 15  2  5  2       -1 0.162611275209D+02
  </mgrwgt>
  </event>
  <event npLO=' -1 ' npNLO=' 0 '>
  5     66 0.13120323E+02 0.56895793E+02 0.75467711E-02 0.11624097E+00
        1 -1    0    0  501    0 0.00000000E+00 0.00000000E+00 0.84098896E+02 0.84098896E+02 0.00000000E+00 0.0000E+00 0.9000E+01
       -1 -1    0    0    0  501 0.00000000E+00 0.00000000E+00 -.24698153E+02 0.24698153E+02 0.00000000E+00 0.0000E+00 0.9000E+01
       23  2    1    2    0    0 0.00000000E+00 0.00000000E+00 0.59400742E+02 0.10879705E+03 0.91150149E+02 0.0000E+00 0.0000E+00
      -13  1    3    3    0    0 0.17452423E+02 -.31686936E+02 -.33871538E+01 0.36333480E+02 0.00000000E+00 0.0000E+00 0.9000E+01
       13  1    3    3    0    0 -.17452423E+02 0.31686936E+02 0.62787896E+02 0.72463569E+02 0.00000000E+00 0.0000E+00 0.9000E+01
#aMCatNLO 1  0  0  1  2 0.77072988D+02 0.00000000D+00  -5  5  0 0.00000000D+00 0.00000000D+00 0.00000000D+00 0.00000000D+00 0.00000000D+00
  <mgrwgt>
 0.3305878278D+03    5    2    0
 0.455750747460735D+02 0.000000000000000D+00 0.000000000000000D+00 0.455750747460735D+02
 0.455750747460735D+02 0.000000000000000D+00 0.000000000000000D+00 -.455750747460735D+02
 0.455750747460735D+02 0.174524232165662D+02 -.316869356067381D+02 -.277207228230881D+02
 0.455750747460735D+02 -.174524232165662D+02 0.316869356067381D+02 0.277207228230881D+02
 0.000000000000000D+00 -.000000000000000D+00 -.000000000000000D+00 -.000000000000000D+00
 0.626168378755076D+02 0.000000000000000D+00 0.000000000000000D+00 0.626168378755076D+02
 0.883737153986367D+02 0.000000000000000D+00 0.000000000000000D+00 -.883737153986367D+02
 0.510352013630508D+02 0.368091411244931D+02 -.219371929382457D+02 -.277207228230881D+02
 0.497760067906733D+02 0.165200399196171D+01 0.413096025277564D+02 0.277207228230881D+02
 0.501793451204202D+02 -.384611451164548D+02 -.193724095895107D+02 -.257568775231292D+02
0.288956797548D-01 0.000000000000D+00 0.000000000000D+00 0.133748251274D+01 0.000000000000D+00  5 1 -1 -13 13 21 0 0.12938292D-01 0.37997159D-02 0.13086490D+04 0.83083498D+04 0.83083498D+04 0.12177647D+01  1  2  2  1  5  1        1 0.334798982900D+03
-.150117687157D-02 0.000000000000D+00 -.110967018666D-03 0.133748251274D+01 0.000000000000D+00  5 1 -1 -13 13 21 2 0.12938292D-01 0.37997159D-02 0.13086490D+04 0.83083498D+04 0.83083498D+04 0.12177647D+01  1  2  3  1  5  1        1 -.293174780499D+02
0.130290246065D-02 0.000000000000D+00 0.000000000000D+00 0.133748251274D+01 0.000000000000D+00  5 1 -1 -13 13 21 2 0.12938292D-01 0.37997159D-02 0.13086490D+04 0.83083498D+04 0.83083498D+04 0.12177647D+01  1  2 15  1  5  1        1 0.223866902567D+02
0.326153500627D-03 0.000000000000D+00 0.000000000000D+00 0.133748251274D+01 0.000000000000D+00  5 1 -1 -13 13 21 2 0.34469613D-01 0.37997159D-02 0.40486157D+04 0.10162900D+05 0.10162900D+05 0.12086054D+01  1  2 12  1  5  1        1 0.162563624307D+01
0.355629934058D-04 0.000000000000D+00 0.000000000000D+00 0.133748251274D+01 0.000000000000D+00  5 21 -1 -13 13 -1 2 0.34469613D-01 0.37997159D-02 0.40486157D+04 0.10162900D+05 0.10162900D+05 0.12086054D+01  1  2 12  3  5  1        1 0.109399648368D+01
  </mgrwgt>
  </event>
  <event npLO=' -1 ' npNLO=' 0 '>
  6     66 -.13120323E+02 0.90056208E+02 0.75467711E-02 0.11822011E+00
        3 -1    0    0  501    0 0.00000000E+00 0.00000000E+00 0.10134517E+03 0.10134517E+03 0.00000000E+00 0.0000E+00 0.9000E+01
       -3 -1    0    0    0  502 0.00000000E+00 0.00000000E+00 -.22973473E+02 0.22973473E+02 0.00000000E+00 0.0000E+00 0.9000E+01
       23  2    1    2    0    0 -.15188984E+01 -.15214191E+01 0.65774585E+02 0.11153940E+03 0.90056208E+02 0.0000E+00 0.0000E+00
      -13  1    3    3    0    0 0.14338438E+02 0.30712974E+02 -.29180175E+01 0.34020471E+02 0.00000000E+00 0.0000E+00 0.9000E+01
       13  1    3    3    0    0 -.15857336E+02 -.32234393E+02 0.68692602E+02 0.77518932E+02 0.00000000E+00 0.0000E+00 0.9000E+01
       21  1    1    2  501  502 0.15188984E+01 0.15214191E+01 0.12597109E+02 0.12779238E+02 0.00000000E+00 0.0000E+00 0.9000E+01
#aMCatNLO 2  0  0  2  1 0.12271834D+02 0.00000000D+00  -5  5  0 0.00000000D+00 0.00000000D+00 0.00000000D+00 0.00000000D+00 0.00000000D+00
  <mgrwgt>
 -.6539820641D+02    2    2    0
 0.450281039843541D+02 0.000000000000000D+00 0.000000000000000D+00 0.450281039843541D+02
 0.450281039843541D+02 0.000000000000000D+00 0.000000000000000D+00 -.450281039843541D+02
 0.450281039843541D+02 0.150912584860502D+02 0.314670442937112D+02 -.284536322663845D+02
 0.450281039843541D+02 -.150912584860502D+02 -.314670442937112D+02 0.284536322663845D+02
 0.000000000000000D+00 0.000000000000000D+00 0.000000000000000D+00 0.000000000000000D+00
 0.514869797042445D+02 0.000000000000000D+00 0.000000000000000D+00 0.514869797042445D+02
 0.452201805564641D+02 0.000000000000000D+00 0.000000000000000D+00 -.452201805564641D+02
 0.442547938927323D+02 0.143384378702139D+02 0.307129743395132D+02 -.284536322663845D+02
 0.458270708878317D+02 -.158573363164692D+02 -.322343934634127D+02 0.284536322663845D+02
 0.662529548014455D+01 0.151889844625522D+01 0.152141912389949D+01 0.626679914778032D+01
-.939460112300D-02 0.000000000000D+00 0.000000000000D+00 0.689355923003D+00 0.000000000000D+00  5 3 -3 -13 13 21 2 0.13635653D-01 0.40413556D-02 0.12948703D+04 0.81147424D+04 0.81147424D+04 0.12188510D+01  1  2 13  2  5  2       -3 -.795396994356D+02
0.171155968221D-02 0.000000000000D+00 0.000000000000D+00 0.689355923003D+00 0.118975707119D+01  5 3 -3 -13 13 21 2 0.15591564D-01 0.35343805D-02 0.12948703D+04 0.81147424D+04 0.81147424D+04 0.12188510D+01  1  2  1  2  5  2       -3 0.141414930266D+02
  </mgrwgt>
  </event>
  <event npLO=' -1 ' npNLO=' 0 '>
  5     66 0.13120323E+02 0.77292223E+02 0.75467711E-02 0.11737998E+00
        3 -1    0    0  501    0 0.00000000E+00 0.00000000E+00 0.24127876E+03 0.24127876E+03 0.00000000E+00 0.0000E+00 0.9000E+01
       -3 -1    0    0    0  501 0.00000000E+00 0.00000000E+00 -.88697346E+01 0.88697346E+01 0.00000000E+00 0.0000E+00 0.9000E+01
       23  2    1    2    0    0 0.00000000E+00 0.00000000E+00 0.23240903E+03 0.25014850E+03 0.92521967E+02 0.0000E+00 0.0000E+00
      -11  1    3    3    0    0 0.34316634E+01 0.34117332E+02 0.20016237E+03 0.20307817E+03 0.00000000E+00 0.0000E+00 0.9000E+01
       11  1    3    3    0    0 -.34316634E+01 -.34117332E+02 0.32246654E+02 0.47070323E+02 0.00000000E+00 0.0000E+00 0.9000E+01
#aMCatNLO 1  0  0  1  2 0.25766282D+02 0.00000000D+00  -5  5  0 0.00000000D+00 0.00000000D+00 0.00000000D+00 0.00000000D+00 0.00000000D+00
  <mgrwgt>
 0.2108617302D+03    9    2    0
 0.462609833101359D+02 0.000000000000000D+00 0.000000000000000D+00 0.462609833101359D+02
 0.462609833101359D+02 0.000000000000000D+00 0.000000000000000D+00 -.462609833101359D+02
 0.462609833101359D+02 0.343166339263736D+01 0.341173320421108D+02 0.310533398768742D+02
 0.462609833101359D+02 -.343166339263736D+01 -.341173320421108D+02 -.310533398768742D+02
 0.000000000000000D+00 -.000000000000000D+00 -.000000000000000D+00 0.000000000000000D+00
 0.576911950665014D+02 0.000000000000000D+00 0.000000000000000D+00 0.576911950665014D+02
 0.558035649341144D+02 0.000000000000000D+00 0.000000000000000D+00 -.558035649341144D+02
 0.489472190748252D+02 0.129797471727791D+02 0.355393655117955D+02 0.310533398768742D+02
 0.454968403127934D+02 0.577039447095685D+01 -.327468335658382D+02 -.310533398768742D+02
 0.190507006129971D+02 -.187501416437360D+02 -.279253194595730D+01 0.188763013238698D+01
0.279737436461D-01 0.000000000000D+00 0.000000000000D+00 0.448842554335D+00 0.000000000000D+00  5 3 -3 -11 11 21 0 0.37119809D-01 0.13645746D-02 0.11757687D+04 0.85603143D+04 0.85603143D+04 0.12163928D+01  1  2  2  1  5  1        3 0.128904927339D+03
-.138464831915D-02 0.000000000000D+00 -.107426541257D-03 0.448842554335D+00 0.000000000000D+00  5 3 -3 -11 11 21 2 0.37119809D-01 0.13645746D-02 0.11757687D+04 0.85603143D+04 0.85603143D+04 0.12163928D+01  1  2  3  1  5  1        3 -.108948123414D+02
0.121849424479D-02 0.000000000000D+00 0.000000000000D+00 0.448842554335D+00 0.000000000000D+00  5 3 -3 -11 11 21 2 0.37119809D-01 0.13645746D-02 0.11757687D+04 0.85603143D+04 0.85603143D+04 0.12163928D+01  1  2 15  1  5  1        3 0.830787751613D+01
0.141105124743D-01 0.000000000000D+00 0.000000000000D+00 0.448842554335D+00 0.000000000000D+00  5 3 -3 -11 11 21 2 0.55840268D-01 0.13645746D-02 0.20269690D+04 0.89196804D+04 0.89196804D+04 0.12145124D+01  1  2 12  1  5  1        3 0.426397499119D+02
-.142558676921D-01 0.000000000000D+00 0.000000000000D+00 0.448842554335D+00 0.000000000000D+00  5 3 -3 -11 11 21 2 0.37119809D-01 0.13645746D-02 0.11757687D+04 0.85603143D+04 0.85603143D+04 0.12163928D+01  1  2  4  1  5  1        3 -.971986557822D+02
-.216368344292D-01 0.000000000000D+00 -.135753699602D-01 0.448842554335D+00 0.000000000000D+00  5 3 -3 -11 11 21 2 0.54856687D-01 0.13645746D-02 0.11757687D+04 0.85603143D+04 0.85603143D+04 0.12163928D+01  1  2  5  1  5  1        3 -.152147536939D+03
0.259109124856D-01 0.000000000000D+00 0.126018948130D-01 0.448842554335D+00 0.000000000000D+00  5 3 -3 -11 11 21 2 0.37119809D-01 0.13645746D-02 0.11757687D+04 0.85603143D+04 0.85603143D+04 0.12163928D+01  1  2  6  1  5  1        3 0.347237378666D+03
0.681935587029D-03 0.000000000000D+00 0.000000000000D+00 0.448842554335D+00 0.000000000000D+00  5 21 -3 -11 11 -3 2 0.55840268D-01 0.13645746D-02 0.20269690D+04 0.89196804D+04 0.89196804D+04 0.12145124D+01  1  2 12  3  5  1        3 0.314221754307D+02
-.563573394807D-03 0.000000000000D+00 -.634997760187D-03 0.448842554335D+00 0.000000000000D+00  5 21 -3 -11 11 -3 2 0.54856687D-01 0.13645746D-02 0.11757687D+04 0.85603143D+04 0.85603143D+04 0.12163928D+01  1  2  5  3  5  1        3 -.874093735758D+02
  </mgrwgt>
  </event>
  <event npLO=' -1 ' npNLO=' 0 '>
  5     66 0.13120323E+02 0.58542162E+02 0.75467711E-02 0.11931229E+00
        1 -1    0    0  501    0 0.00000000E+00 0.00000000E+00 0.37979236E+02 0.37979236E+02 0.00000000E+00 0.0000E+00 0.9000E+01
       -1 -1    0    0    0  501 0.00000000E+00 0.00000000E+00 -.47284135E+02 0.47284135E+02 0.00000000E+00 0.0000E+00 0.9000E+01
       23  2    1    2    0    0 0.00000000E+00 0.00000000E+00 -.93048994E+01 0.85263371E+02 0.84754122E+02 0.0000E+00 0.0000E+00
      -11  1    3    3    0    0 0.19834830E+02 -.32860851E+02 -.22720298E+02 0.44603453E+02 0.00000000E+00 0.0000E+00 0.9000E+01
       11  1    3    3    0    0 -.19834830E+02 0.32860851E+02 0.13415399E+02 0.40659918E+02 0.00000000E+00 0.0000E+00 0.9000E+01
#aMCatNLO 1  0  0  1  2 0.69288684D+01 0.00000000D+00  -5  5  0 0.00000000D+00 0.00000000D+00 0.00000000D+00 0.00000000D+00 0.00000000D+00
  <mgrwgt>
 0.4946943298D+03    8    2    0
 0.423770612401699D+02 0.000000000000000D+00 0.000000000000000D+00 0.423770612401699D+02
 0.423770612401699D+02 0.000000000000000D+00 0.000000000000000D+00 -.423770612401699D+02
 0.423770612401699D+02 0.198348303018943D+02 -.328608510537789D+02 -.179599358091706D+02
 0.423770612401699D+02 -.198348303018943D+02 0.328608510537789D+02 0.179599358091706D+02
 0.000000000000000D+00 -.000000000000000D+00 -.000000000000000D+00 -.000000000000000D+00
 0.429888691602718D+02 0.000000000000000D+00 0.000000000000000D+00 0.429888691602718D+02
 0.456714537755130D+02 0.000000000000000D+00 0.000000000000000D+00 -.456714537755130D+02
 0.429331022117556D+02 0.212241156805775D+02 -.327143528872725D+02 -.179599358091706D+02
 0.418664867270474D+02 -.184629148734916D+02 0.330055175837421D+02 0.179599358091706D+02
 0.386073399698175D+01 -.276120080708587D+01 -.291164696469675D+00 -.268258461524119D+01
0.206205818205D-01 0.000000000000D+00 0.000000000000D+00 0.273984112363D-01 0.000000000000D+00  5 1 -1 -11 11 21 0 0.58429594D-02 0.72744823D-02 0.14732560D+04 0.71832613D+04 0.71832613D+04 0.12245184D+01  1  2  2  1  5  1        1 0.266385423720D+03
-.113193855968D-02 0.000000000000D+00 -.791884637145D-04 0.273984112363D-01 0.000000000000D+00  5 1 -1 -11 11 21 2 0.58429594D-02 0.72744823D-02 0.14732560D+04 0.71832613D+04 0.71832613D+04 0.12245184D+01  1  2  3  1  5  1        1 -.243563372049D+02
0.102453884248D-02 0.000000000000D+00 0.000000000000D+00 0.273984112363D-01 0.000000000000D+00  5 1 -1 -11 11 21 2 0.58429594D-02 0.72744823D-02 0.14732560D+04 0.71832613D+04 0.71832613D+04 0.12245184D+01  1  2 15  1  5  1        1 0.198458007600D+02
0.201757952861D-01 0.000000000000D+00 0.000000000000D+00 0.273984112363D-01 0.000000000000D+00  5 1 -1 -11 11 21 2 0.63881051D-02 0.72744823D-02 0.15836866D+04 0.71909703D+04 0.71909703D+04 0.12244682D+01  1  2 12  1  5  1        1 0.346776059434D+03
-.101801859402D-01 0.000000000000D+00 0.000000000000D+00 0.273984112363D-01 0.000000000000D+00  5 1 -1 -11 11 21 2 0.58429594D-02 0.72744823D-02 0.14732560D+04 0.71832613D+04 0.71832613D+04 0.12245184D+01  1  2  4  1  5  1        1 -.197195004710D+03
0.519239153349D-03 0.000000000000D+00 0.000000000000D+00 0.273984112363D-01 0.284855077050D-01  5 1 -1 -11 11 21 2 0.59273156D-02 0.78400006D-02 0.15836866D+04 0.71909703D+04 0.71909703D+04 0.12244682D+01  1  2 11  1  5  1        1 0.885266682135D+01
0.305426709731D-03 0.000000000000D+00 0.000000000000D+00 0.273984112363D-01 0.000000000000D+00  5 21 -1 -11 11 -1 2 0.63881051D-02 0.72744823D-02 0.15836866D+04 0.71909703D+04 0.71909703D+04 0.12244682D+01  1  2 12  3  5  1        1 0.701372112757D+02
0.182804715184D-04 0.000000000000D+00 0.000000000000D+00 0.273984112363D-01 0.774258694000D-04  5 21 -1 -11 11 -1 2 0.59273156D-02 0.78400006D-02 0.15836866D+04 0.71909703D+04 0.71909703D+04 0.12244682D+01  1  2 11  3  5  1        1 0.424850970035D+01
  </mgrwgt>
  </event>
  <event npLO=' -1 ' npNLO=' 0 '>
  5     66 0.13120323E+02 0.44348271E+02 0.75467711E-02 0.11796357E+00
        1 -1    0    0  501    0 0.00000000E+00 0.00000000E+00 0.79830606E+03 0.79830606E+03 0.00000000E+00 0.0000E+00 0.9000E+01
       -1 -1    0    0    0  501 0.00000000E+00 0.00000000E+00 -.25380652E+01 0.25380652E+01 0.00000000E+00 0.0000E+00 0.9000E+01
       23  2    1    2    0    0 0.00000000E+00 0.00000000E+00 0.79576800E+03 0.80084413E+03 0.90025615E+02 0.0000E+00 0.0000E+00
      -13  1    3    3    0    0 0.25700543E+01 -.13767374E+02 0.17337016E+02 0.22287169E+02 0.00000000E+00 0.0000E+00 0.9000E+01
       13  1    3    3    0    0 -.25700543E+01 0.13767374E+02 0.77843098E+03 0.77855696E+03 0.00000000E+00 0.0000E+00 0.9000E+01
#aMCatNLO 1  0  0  1  2 0.21051535D+02 0.00000000D+00  -5  5  0 0.00000000D+00 0.00000000D+00 0.00000000D+00 0.00000000D+00 0.00000000D+00
  <mgrwgt>
 0.6778002093D+03    9    2    0
 0.450128076165021D+02 0.000000000000000D+00 0.000000000000000D+00 0.450128076165021D+02
 0.450128076165021D+02 0.000000000000000D+00 0.000000000000000D+00 -.450128076165021D+02
 0.450128076165021D+02 0.257005433999812D+01 -.137673739760369D+02 -.427785820710975D+02
 0.450128076165021D+02 -.257005433999812D+01 0.137673739760369D+02 0.427785820710975D+02
 0.000000000000000D+00 -.000000000000000D+00 -.000000000000000D+00 0.000000000000000D+00
 0.546640444392982D+02 0.000000000000000D+00 0.000000000000000D+00 0.546640444392982D+02
 0.525659593740965D+02 0.000000000000000D+00 0.000000000000000D+00 -.525659593740965D+02
 0.433210071189850D+02 0.301473636774622D+01 -.613302033442824D+01 -.427785820710975D+02
 0.480642510083330D+02 -.210149430678705D+01 0.218116680393076D+02 0.427785820710975D+02
 0.158447456860767D+02 -.913242060959168D+00 -.156786477048794D+02 0.209808506520174D+01
0.230088471674D-01 0.000000000000D+00 0.000000000000D+00 0.926026066890D+00 0.000000000000D+00  5 1 -1 -13 13 21 0 0.12281632D+00 0.39047157D-03 0.19614577D+03 0.81046114D+04 0.81046114D+04 0.12189086D+01  1  2  2  1  5  1        1 0.336976500041D+03
0.840243258995D-03 0.000000000000D+00 -.883600314915D-04 0.926026066890D+00 0.000000000000D+00  5 1 -1 -13 13 21 2 0.12281632D+00 0.39047157D-03 0.19614577D+03 0.81046114D+04 0.81046114D+04 0.12189086D+01  1  2  3  1  5  1        1 0.111283345539D+02
0.765864613477D-03 0.000000000000D+00 0.000000000000D+00 0.926026066890D+00 0.000000000000D+00  5 1 -1 -13 13 21 2 0.12281632D+00 0.39047157D-03 0.19614577D+03 0.81046114D+04 0.81046114D+04 0.12189086D+01  1  2 15  1  5  1        1 0.166647592916D+02
0.135178462126D-01 0.000000000000D+00 0.000000000000D+00 0.926026066890D+00 0.000000000000D+00  5 1 -1 -13 13 21 2 0.17417677D+00 0.39047157D-03 0.49399110D+03 0.83512654D+04 0.83512654D+04 0.12175278D+01  1  2 12  1  5  1        1 0.165634263823D+03
-.137127957892D-01 0.000000000000D+00 0.000000000000D+00 0.926026066890D+00 0.000000000000D+00  5 1 -1 -13 13 21 2 0.12281632D+00 0.39047157D-03 0.19614577D+03 0.81046114D+04 0.81046114D+04 0.12189086D+01  1  2  4  1  5  1        1 -.298382295017D+03
-.503239341647D-02 0.000000000000D+00 -.121285416916D-01 0.926026066890D+00 0.000000000000D+00  5 1 -1 -13 13 21 2 0.16678133D+00 0.39047157D-03 0.19614577D+03 0.81046114D+04 0.81046114D+04 0.12189086D+01  1  2  5  1  5  1        1 -.664401745712D+03
0.887154020668D-02 0.000000000000D+00 0.115820706340D-01 0.926026066890D+00 0.000000000000D+00  5 1 -1 -13 13 21 2 0.12281632D+00 0.39047157D-03 0.19614577D+03 0.81046114D+04 0.81046114D+04 0.12189086D+01  1  2  6  1  5  1        1 0.113088534261D+04
0.583207828870D-03 0.000000000000D+00 0.000000000000D+00 0.926026066890D+00 0.000000000000D+00  5 21 -1 -13 13 -1 2 0.17417677D+00 0.39047157D-03 0.49399110D+03 0.83512654D+04 0.83512654D+04 0.12175278D+01  1  2 12  3  5  1        1 0.898231197093D+01
0.830573169871D-04 0.000000000000D+00 -.475577062802D-03 0.926026066890D+00 0.000000000000D+00  5 21 -1 -13 13 -1 2 0.16678133D+00 0.39047157D-03 0.19614577D+03 0.81046114D+04 0.81046114D+04 0.12189086D+01  1  2  5  3  5  1        1 -.296872622635D+02
  </mgrwgt>
  </event>
  <event npLO=' -1 ' npNLO=' 0 '>
  5     66 0.13120323E+02 0.72341895E+02 0.75467711E-02 0.11797087E+00
        5 -1    0    0  501    0 0.00000000E+00 0.00000000E+00 0.19109087E+03 0.19109087E+03 0.00000000E+00 0.0000E+00 0.9000E+01
       -5 -1    0    0    0  501 0.00000000E+00 0.00000000E+00 -.10899993E+02 0.10899993E+02 0.00000000E+00 0.0000E+00 0.9000E+01
       23  2    1    2    0    0 0.00000000E+00 0.00000000E+00 0.18019088E+03 0.20199087E+03 0.91277360E+02 0.0000E+00 0.0000E+00
      -11  1    3    3    0    0 -.21511775E+02 -.13309445E+02 0.17415760E+03 0.17598513E+03 0.00000000E+00 0.0000E+00 0.9000E+01
       11  1    3    3    0    0 0.21511775E+02 0.13309445E+02 0.60332844E+01 0.26005736E+02 0.00000000E+00 0.0000E+00 0.9000E+01
#aMCatNLO 1  0  0  2  1 0.17841353D+02 0.00000000D+00  -5  5  0 0.00000000D+00 0.00000000D+00 0.00000000D+00 0.00000000D+00 0.00000000D+00
  <mgrwgt>
 0.5005320042D+02    6    2    0
 0.456386801491910D+02 0.000000000000000D+00 0.000000000000000D+00 0.456386801491910D+02
 0.456386801491910D+02 0.000000000000000D+00 0.000000000000000D+00 -.456386801491910D+02
 0.456386801491910D+02 -.215117748619815D+02 -.133094445817597D+02 0.379867260101821D+02
 0.456386801491910D+02 0.215117748619815D+02 0.133094445817597D+02 -.379867260101821D+02
 0.000000000000000D+00 0.000000000000000D+00 -.000000000000000D+00 0.000000000000000D+00
 0.552497489956880D+02 0.000000000000000D+00 0.000000000000000D+00 0.552497489956880D+02
 0.460098614021033D+02 0.000000000000000D+00 0.000000000000000D+00 -.460098614021033D+02
 0.460756306159495D+02 -.229978415314243D+02 -.122911215346800D+02 0.379867260101821D+02
 0.452721911144339D+02 0.200387264952895D+02 0.143188468731306D+02 -.379867260101821D+02
 0.991178866740790D+01 0.295911503613488D+01 -.202772533845065D+01 0.923988759358475D+01
0.248202323754D-01 0.000000000000D+00 0.000000000000D+00 0.111250088919D+01 0.000000000000D+00  5 5 -5 -11 11 21 0 0.29398596D-01 0.16769220D-02 0.63989777D+03 0.83315565D+04 0.83315565D+04 0.12176364D+01  1  2  2  2  5  2       -5 0.305426097132D+02
-.795096392068D-03 0.000000000000D+00 -.953162276386D-04 0.111250088919D+01 0.000000000000D+00  5 5 -5 -11 11 21 2 0.29398596D-01 0.16769220D-02 0.63989777D+03 0.83315565D+04 0.83315565D+04 0.12176364D+01  1  2  3  2  5  2       -5 -.189694236076D+01
0.809435963600D-03 0.000000000000D+00 0.000000000000D+00 0.111250088919D+01 0.000000000000D+00  5 5 -5 -11 11 21 2 0.29398596D-01 0.16769220D-02 0.63989777D+03 0.83315565D+04 0.83315565D+04 0.12176364D+01  1  2 15  2  5  2       -5 0.147678765663D+01
0.867896100890D-02 0.000000000000D+00 0.000000000000D+00 0.111250088919D+01 0.000000000000D+00  5 5 -5 -11 11 21 2 0.29398596D-01 0.20465763D-02 0.73691421D+03 0.83444245D+04 0.83444245D+04 0.12175655D+01  1  2 12  2  5  2       -5 0.117062774527D+02
-.182516271742D-02 0.000000000000D+00 0.000000000000D+00 0.111250088919D+01 0.000000000000D+00  5 5 -5 -11 11 21 2 0.29398596D-01 0.16769220D-02 0.63989777D+03 0.83315565D+04 0.83315565D+04 0.12176364D+01  1  2  4  2  5  2       -5 -.332994565801D+01
0.247609606954D-03 0.000000000000D+00 0.000000000000D+00 0.111250088919D+01 0.000000000000D+00  5 5 21 -11 11 5 2 0.29398596D-01 0.20465763D-02 0.73691421D+03 0.83444245D+04 0.83444245D+04 0.12175655D+01  1  2 12  4  5  2       -5 0.115544136183D+02
  </mgrwgt>
  </event>
  <event npLO=' -1 ' npNLO=' 0 '>
  5     66 0.13120323E+02 0.77625670E+02 0.75467711E-02 0.11708828E+00
        1 -1    0    0  501    0 0.00000000E+00 0.00000000E+00 0.10165148E+04 0.10165148E+04 0.00000000E+00 0.0000E+00 0.9000E+01
       -1 -1    0    0    0  501 0.00000000E+00 0.00000000E+00 -.20741466E+01 0.20741466E+01 0.00000000E+00 0.0000E+00 0.9000E+01
       23  2    1    2    0    0 0.00000000E+00 0.00000000E+00 0.10144406E+04 0.10185889E+04 0.91834647E+02 0.0000E+00 0.0000E+00
      -13  1    3    3    0    0 -.24577718E+01 -.36481835E+01 0.26826975E+00 0.44070232E+01 0.00000000E+00 0.0000E+00 0.9000E+01
       13  1    3    3    0    0 0.24577718E+01 0.36481835E+01 0.10141723E+04 0.10141819E+04 0.00000000E+00 0.0000E+00 0.9000E+01
#aMCatNLO 1  0  0  2  1 0.29508067D+02 0.00000000D+00  -5  5  0 0.00000000D+00 0.00000000D+00 0.00000000D+00 0.00000000D+00 0.00000000D+00
  <mgrwgt>
 0.6260566964D+03    7    2    0
 0.459173234476046D+02 0.000000000000000D+00 0.000000000000000D+00 0.459173234476046D+02
 0.459173234476046D+02 0.000000000000000D+00 0.000000000000000D+00 -.459173234476046D+02
 0.459173234476046D+02 -.245777179627644D+01 -.364818345379546D+01 -.457061342477880D+02
 0.459173234476046D+02 0.245777179627644D+01 0.364818345379546D+01 0.457061342477880D+02
 0.000000000000000D+00 0.000000000000000D+00 0.000000000000000D+00 -.000000000000000D+00
 0.511114736472093D+02 0.000000000000000D+00 0.000000000000000D+00 0.511114736472093D+02
 0.111476531463077D+03 0.000000000000000D+00 0.000000000000000D+00 -.111476531463077D+03
 0.491529352857337D+02 -.154095058286052D+02 -.946083872840484D+01 -.457061342477880D+02
 0.468705122921397D+02 -.101830202447697D+02 -.202492304678759D+01 0.457061342477880D+02
 0.665645575324132D+02 0.255925260733750D+02 0.114857617751924D+02 -.603650578158681D+02
0.354287357406D-01 0.000000000000D+00 0.000000000000D+00 0.161923544771D+01 0.000000000000D+00  5 1 -1 -13 13 21 0 0.15638689D+00 0.31909947D-03 0.19349885D+02 0.84336024D+04 0.84336024D+04 0.12170770D+01  1  2  2  2  5  2       -1 0.464320408572D+03
0.111971727389D-01 0.000000000000D+00 -.136055673844D-03 0.161923544771D+01 0.000000000000D+00  5 1 -1 -13 13 21 2 0.15638689D+00 0.31909947D-03 0.19349885D+02 0.84336024D+04 0.84336024D+04 0.12170770D+01  1  2  3  2  5  2       -1 0.201321650807D+03
0.128383764634D-02 0.000000000000D+00 0.000000000000D+00 0.161923544771D+01 0.000000000000D+00  5 1 -1 -13 13 21 2 0.15638689D+00 0.31909947D-03 0.19349885D+02 0.84336024D+04 0.84336024D+04 0.12170770D+01  1  2 15  2  5  2       -1 0.249234594801D+02
0.497431078928D-01 0.000000000000D+00 0.000000000000D+00 0.161923544771D+01 0.000000000000D+00  5 1 -1 -13 13 21 2 0.15638689D+00 0.86233260D-03 0.79851976D+03 0.92205025D+04 0.92205025D+04 0.12130023D+01  1  2 12  2  5  2       -1 0.250030435099D+03
0.654184200856D-02 0.000000000000D+00 -.105481481611D-01 0.161923544771D+01 0.000000000000D+00  5 1 -1 -13 13 21 2 0.15638689D+00 0.86580675D-03 0.19349885D+02 0.84336024D+04 0.84336024D+04 0.12170770D+01  1  2  5  2  5  2       -1 -.288470273771D+03
0.551698920169D-02 0.000000000000D+00 0.000000000000D+00 0.161923544771D+01 0.000000000000D+00  5 1 21 -13 13 1 2 0.15638689D+00 0.86233260D-03 0.79851976D+03 0.92205025D+04 0.92205025D+04 0.12130023D+01  1  2 12  4  5  2       -1 0.544163998015D+03
0.133990228408D-02 0.000000000000D+00 -.117548785995D-02 0.161923544771D+01 0.000000000000D+00  5 1 21 -13 13 1 2 0.15638689D+00 0.86580675D-03 0.19349885D+02 0.84336024D+04 0.84336024D+04 0.12170770D+01  1  2  5  4  5  2       -1 -.570232981828D+03
  </mgrwgt>
  </event>
  <event npLO=' -1 ' npNLO=' 0 '>
  5     66 0.13120323E+02 0.91653160E+02 0.75467711E-02 0.10905960E+00
        1 -1    0    0  501    0 0.00000000E+00 0.00000000E+00 0.42850260E+01 0.42850260E+01 0.00000000E+00 0.0000E+00 0.9000E+01
       -1 -1    0    0    0  501 0.00000000E+00 0.00000000E+00 -.49009631E+03 0.49009631E+03 0.00000000E+00 0.0000E+00 0.9000E+01
       23  2    1    2    0    0 0.00000000E+00 0.00000000E+00 -.48581128E+03 0.49438134E+03 0.91653160E+02 0.0000E+00 0.0000E+00
      -11  1    3    3    0    0 0.19611523E+02 0.20581154E+02 -.49028923E+02 0.56674783E+02 0.00000000E+00 0.0000E+00 0.9000E+01
       11  1    3    3    0    0 -.19611523E+02 -.20581154E+02 -.43678236E+03 0.43770655E+03 0.00000000E+00 0.0000E+00 0.9000E+01
#aMCatNLO 1  0  0  2  1 0.14870626D+03 0.00000000D+00  -5  5  0 0.00000000D+00 0.00000000D+00 0.00000000D+00 0.00000000D+00 0.00000000D+00
  <mgrwgt>
 0.3374363025D+03    5    2    0
 0.458265798880216D+02 0.000000000000000D+00 0.000000000000000D+00 0.458265798880216D+02
 0.458265798880216D+02 0.000000000000000D+00 0.000000000000000D+00 -.458265798880216D+02
 0.458265798880216D+02 0.196115227809917D+02 0.205811539217503D+02 0.359427280780563D+02
 0.458265798880216D+02 -.196115227809917D+02 -.205811539217503D+02 -.359427280780563D+02
 0.000000000000000D+00 0.000000000000000D+00 -.000000000000000D+00 -.000000000000000D+00
 0.103617745864108D+03 0.000000000000000D+00 0.000000000000000D+00 0.103617745864108D+03
 0.240617469142756D+03 0.000000000000000D+00 0.000000000000000D+00 -.240617469142756D+03
 0.869488962409510D+02 -.185543764067975D+02 0.769673045648699D+02 0.359427280780563D+02
 0.701083368012478D+02 -.529366553409334D+02 0.286532669805613D+02 -.359427280780563D+02
 0.187177981964665D+03 0.714910317477309D+02 -.105620571545431D+03 -.136999723278647D+03
0.579327224411D-01 0.000000000000D+00 0.000000000000D+00 0.939206775462D+00 0.000000000000D+00  5 1 -1 -11 11 21 0 0.65923477D-03 0.75399432D-01 0.80819572D+03 0.84003017D+04 0.84003017D+04 0.12172587D+01  1  2  2  2  5  2       -1 0.343110956061D+03
-.232639017988D-02 0.000000000000D+00 -.222476908210D-03 0.939206775462D+00 0.000000000000D+00  5 1 -1 -11 11 21 2 0.65923477D-03 0.75399432D-01 0.80819572D+03 0.84003017D+04 0.84003017D+04 0.12172587D+01  1  2  3  2  5  2       -1 -.249863683108D+02
0.222961747118D-02 0.000000000000D+00 0.000000000000D+00 0.939206775462D+00 0.000000000000D+00  5 1 -1 -11 11 21 2 0.65923477D-03 0.75399432D-01 0.80819572D+03 0.84003017D+04 0.84003017D+04 0.12172587D+01  1  2 15  2  5  2       -1 0.195662134303D+02
0.593191163450D-01 0.000000000000D+00 -.276543019751D-01 0.939206775462D+00 0.000000000000D+00  5 1 -1 -11 11 21 2 0.65923477D-03 0.53794375D+00 0.80819572D+03 0.84003017D+04 0.84003017D+04 0.12172587D+01  1  2  5  2  5  2       -1 -.832704015264D-01
0.115322919994D-01 0.000000000000D+00 -.663718277385D-02 0.939206775462D+00 0.000000000000D+00  5 1 21 -11 11 1 2 0.65923477D-03 0.53794375D+00 0.80819572D+03 0.84003017D+04 0.84003017D+04 0.12172587D+01  1  2  5  4  5  2       -1 -.171228252471D+00
  </mgrwgt>
  </event>
  <event npLO=' -1 ' npNLO=' 0 '>
  6     66 0.13120323E+02 0.90347331E+02 0.75467711E-02 0.11788088E+00
       21 -1    0    0  501  502 0.00000000E+00 0.00000000E+00 0.21192813E+03 0.21192813E+03 0.00000000E+00 0.0000E+00 0.9000E+01
       -1 -1    0    0    0  501 0.00000000E+00 0.00000000E+00 -.13820601E+02 0.13820601E+02 0.00000000E+00 0.0000E+00 0.9000E+01
       23  2    1    2    0    0 0.98094688E+01 -.13050903E+02 0.16453847E+03 0.18842001E+03 0.90347331E+02 0.0000E+00 0.0000E+00
      -11  1    3    3    0    0 0.38189236E+02 -.13864907E+02 0.28941233E+02 0.49882345E+02 0.00000000E+00 0.0000E+00 0.9000E+01
       11  1    3    3    0    0 -.28379767E+02 0.81400410E+00 0.13559724E+03 0.13853767E+03 0.00000000E+00 0.0000E+00 0.9000E+01
       -1  1    1    2    0  502 -.98094688E+01 0.13050903E+02 0.33569057E+02 0.37328720E+02 0.00000000E+00 0.0000E+00 0.9000E+01
#aMCatNLO 2  0  0  1  2 0.21984130D+02 0.00000000D+00  -5  5  0 0.00000000D+00 0.00000000D+00 0.00000000D+00 0.00000000D+00 0.00000000D+00
  <mgrwgt>
 0.1822205240D+02    2    2    0
 0.451736655209472D+02 0.000000000000000D+00 0.000000000000000D+00 0.451736655209472D+02
 0.451736655209472D+02 0.000000000000000D+00 0.000000000000000D+00 -.451736655209472D+02
 0.451736655209472D+02 0.330368075052365D+02 -.700991429468294D+01 -.300015084294367D+02
 0.451736655209472D+02 -.330368075052365D+02 0.700991429468294D+01 0.300015084294367D+02
 0.000000000000000D+00 -.000000000000000D+00 0.000000000000000D+00 0.000000000000000D+00
 0.551261871448536D+02 0.000000000000000D+00 0.000000000000000D+00 0.551261871448536D+02
 0.531321745138866D+02 0.000000000000000D+00 0.000000000000000D+00 -.531321745138866D+02
 0.505048896694209D+02 0.381892356048710D+02 -.138649073705696D+02 -.300015084294367D+02
 0.413057414193735D+02 -.283797667977082D+02 0.814004097218330D+00 0.300015084294367D+02
 0.164477305699457D+02 -.980946880716278D+01 0.130509032733513D+02 0.199401263096699D+01
-.664651763743D-03 0.000000000000D+00 0.000000000000D+00 0.913324099206D+00 0.000000000000D+00  5 21 -1 -11 11 -1 2 0.38348423D-01 0.18077623D-02 0.18209885D+04 0.84291920D+04 0.84291920D+04 0.12171010D+01  1  2 13  3  5  1        1 -.477037485161D+02
0.842272551758D-03 0.000000000000D+00 0.000000000000D+00 0.913324099206D+00 0.865049239965D-03  5 21 -1 -11 11 -1 2 0.32604328D-01 0.21262463D-02 0.18209885D+04 0.84291920D+04 0.84291920D+04 0.12171010D+01  1  2  1  3  5  1        1 0.659258009137D+02
  </mgrwgt>
  </event>
  <event npLO=' -1 ' npNLO=' 0 '>
  5     66 0.13120323E+02 0.33766053E+02 0.75467711E-02 0.11782775E+00
        1 -1    0    0  501    0 0.00000000E+00 0.00000000E+00 0.12978895E+04 0.12978895E+04 0.00000000E+00 0.0000E+00 0.9000E+01
       -1 -1    0    0    0  501 0.00000000E+00 0.00000000E+00 -.16261399E+01 0.16261399E+01 0.00000000E+00 0.0000E+00 0.9000E+01
       23  2    1    2    0    0 0.00000000E+00 0.00000000E+00 0.12962634E+04 0.12995157E+04 0.91881446E+02 0.0000E+00 0.0000E+00
      -11  1    3    3    0    0 -.43262836E+02 -.14013174E+02 0.55591940E+03 0.55777632E+03 0.00000000E+00 0.0000E+00 0.9000E+01
       11  1    3    3    0    0 0.43262836E+02 0.14013174E+02 0.74034399E+03 0.74173935E+03 0.00000000E+00 0.0000E+00 0.9000E+01
#aMCatNLO 1  0  0  2  1 0.10876517D+02 0.00000000D+00  -5  5  0 0.00000000D+00 0.00000000D+00 0.00000000D+00 0.00000000D+00 0.00000000D+00
  <mgrwgt>
 0.6843297612D+03    6    2    0
 0.459407227908356D+02 0.000000000000000D+00 0.000000000000000D+00 0.459407227908356D+02
 0.459407227908356D+02 0.000000000000000D+00 0.000000000000000D+00 -.459407227908356D+02
 0.459407227908356D+02 -.432628364627549D+02 -.140131735160334D+02 -.651981286164461D+01
 0.459407227908356D+02 0.432628364627549D+02 0.140131735160334D+02 0.651981286164461D+01
 0.000000000000000D+00 0.000000000000000D+00 -.000000000000000D+00 0.000000000000000D+00
 0.506556182996427D+02 0.000000000000000D+00 0.000000000000000D+00 0.506556182996427D+02
 0.480759307033568D+02 0.000000000000000D+00 0.000000000000000D+00 -.480759307033568D+02
 0.467445382123549D+02 -.448675851527918D+02 -.113773325297460D+02 -.651981286164461D+01
 0.453408397961601D+02 0.416823913477440D+02 0.166090952554227D+02 0.651981286164461D+01
 0.664617099448445D+01 0.318519380504779D+01 -.523176272567672D+01 0.257968759628589D+01
0.414643389666D-01 0.000000000000D+00 0.000000000000D+00 0.699067162321D+00 0.000000000000D+00  5 1 -1 -11 11 21 0 0.19967531D+00 0.25017538D-03 0.20680421D+04 0.84422000D+04 0.84422000D+04 0.12170302D+01  1  2  2  2  5  2       -1 0.481985142840D+03
-.230328452304D-02 0.000000000000D+00 -.159233979443D-03 0.699067162321D+00 0.000000000000D+00  5 1 -1 -11 11 21 2 0.19967531D+00 0.25017538D-03 0.20680421D+04 0.84422000D+04 0.84422000D+04 0.12170302D+01  1  2  3  2  5  2       -1 -.435124133993D+02
0.222023597558D-02 0.000000000000D+00 0.000000000000D+00 0.699067162321D+00 0.000000000000D+00  5 1 -1 -11 11 21 2 0.19967531D+00 0.25017538D-03 0.20680421D+04 0.84422000D+04 0.84422000D+04 0.12170302D+01  1  2 15  2  5  2       -1 0.382261666839D+02
0.259239769236D-01 0.000000000000D+00 0.000000000000D+00 0.699067162321D+00 0.000000000000D+00  5 1 -1 -11 11 21 2 0.19967531D+00 0.28867172D-03 0.23659638D+04 0.84797168D+04 0.84797168D+04 0.12168267D+01  1  2 12  2  5  2       -1 0.368361702528D+03
-.194545751194D-01 0.000000000000D+00 0.000000000000D+00 0.699067162321D+00 0.000000000000D+00  5 1 -1 -11 11 21 2 0.19967531D+00 0.25017538D-03 0.20680421D+04 0.84422000D+04 0.84422000D+04 0.12170302D+01  1  2  4  2  5  2       -1 -.334952608398D+03
0.569231115424D-03 0.000000000000D+00 0.000000000000D+00 0.699067162321D+00 0.000000000000D+00  5 1 21 -11 11 1 2 0.19967531D+00 0.28867172D-03 0.23659638D+04 0.84797168D+04 0.84797168D+04 0.12168267D+01  1  2 12  4  5  2       -1 0.174221770934D+03
  </mgrwgt>
  </event>
  <event npLO=' -1 ' npNLO=' 0 '>
  5     66 0.13120323E+02 0.78497301E+02 0.75467711E-02 0.11798784E+00
        1 -1    0    0  501    0 0.00000000E+00 0.00000000E+00 0.10413980E+04 0.10413980E+04 0.00000000E+00 0.0000E+00 0.9000E+01
       -1 -1    0    0    0  501 0.00000000E+00 0.00000000E+00 -.19993657E+01 0.19993657E+01 0.00000000E+00 0.0000E+00 0.9000E+01
       23  2    1    2    0    0 0.00000000E+00 0.00000000E+00 0.10393987E+04 0.10433974E+04 0.91260847E+02 0.0000E+00 0.0000E+00
      -11  1    3    3    0    0 -.22945965E+02 0.34523327E+02 0.73775713E+03 0.73892080E+03 0.00000000E+00 0.0000E+00 0.9000E+01
       11  1    3    3    0    0 0.22945965E+02 -.34523327E+02 0.30164154E+03 0.30447660E+03 0.00000000E+00 0.0000E+00 0.9000E+01
#aMCatNLO 1  0  0  1  1 0.49376057D-01 0.00000000D+00  -5  5  0 0.00000000D+00 0.00000000D+00 0.00000000D+00 0.00000000D+00 0.00000000D+00
  <mgrwgt>
 0.7959361750D+03    9    2    0
 0.456304235412411D+02 0.000000000000000D+00 0.000000000000000D+00 0.456304235412411D+02
 0.456304235412411D+02 0.000000000000000D+00 0.000000000000000D+00 -.456304235412411D+02
 0.456304235412411D+02 -.229459648561394D+02 0.345233272447531D+02 0.190724441361234D+02
 0.456304235412411D+02 0.229459648561394D+02 -.345233272447531D+02 -.190724441361234D+02
 0.000000000000000D+00 0.000000000000000D+00 -.000000000000000D+00 0.000000000000000D+00
 0.456881366558598D+02 0.000000000000000D+00 0.000000000000000D+00 0.456881366558598D+02
 0.456395485808792D+02 0.000000000000000D+00 0.000000000000000D+00 -.456395485808792D+02
 0.456504184707448D+02 -.229635521152368D+02 0.345380638640816D+02 0.190724441361234D+02
 0.456104401445919D+02 0.229283852997447D+02 -.345085970796308D+02 -.190724441361234D+02
 0.668266214022988D-01 0.351668154921137D-01 -.294667844507677D-01 0.485880749806143D-01
0.124354864025D-01 0.000000000000D+00 0.000000000000D+00 0.828268390515D+00 0.000000000000D+00  5 1 -1 -11 11 21 0 0.16021508D+00 0.30759473D-03 0.17183774D+04 0.83285422D+04 0.83285422D+04 0.12176531D+01  1  2  2  1  5  1        1 0.164155097799D+03
-.683117954058D-03 0.000000000000D+00 -.477555421244D-04 0.828268390515D+00 0.000000000000D+00  5 1 -1 -11 11 21 2 0.16021508D+00 0.30759473D-03 0.17183774D+04 0.83285422D+04 0.83285422D+04 0.12176531D+01  1  2  3  1  5  1        1 -.148453042967D+02
0.679818348386D-03 0.000000000000D+00 0.000000000000D+00 0.828268390515D+00 0.000000000000D+00  5 1 -1 -11 11 21 2 0.16021508D+00 0.30759473D-03 0.17183774D+04 0.83285422D+04 0.83285422D+04 0.12176531D+01  1  2 15  1  5  1        1 0.133055125282D+02
-.461264926234D+01 0.000000000000D+00 0.000000000000D+00 0.828268390515D+00 0.000000000000D+00  5 1 -1 -11 11 21 2 0.16021508D+00 0.30759473D-03 0.17183774D+04 0.83285422D+04 0.83285422D+04 0.12176531D+01  1  2  4  1  5  1        1 -.902795028909D+05
-.184628334018D+02 0.000000000000D+00 -.115640394683D+01 0.828268390515D+00 0.000000000000D+00  5 1 -1 -11 11 21 2 0.16043425D+00 0.30759473D-03 0.17183774D+04 0.83285422D+04 0.83285422D+04 0.12176531D+01  1  2  5  1  5  1        1 -.396147353930D+06
0.184643980721D+02 0.000000000000D+00 0.115640286630D+01 0.828268390515D+00 0.000000000000D+00  5 1 -1 -11 11 21 2 0.16021508D+00 0.30759473D-03 0.17183774D+04 0.83285422D+04 0.83285422D+04 0.12176531D+01  1  2  6  1  5  1        1 0.397110445086D+06
0.461265292066D+01 0.000000000000D+00 0.000000000000D+00 0.828268390515D+00 0.311147233739D+04  5 1 -1 -11 11 21 2 0.16041772D+00 0.30765624D-03 0.17202803D+04 0.83285443D+04 0.83285443D+04 0.12176530D+01  1  2 11  1  5  1        1 0.900593278037D+05
-.472187207156D-02 0.000000000000D+00 -.295801133523D-03 0.828268390515D+00 0.000000000000D+00  5 21 -1 -11 11 -1 2 0.16043425D+00 0.30759473D-03 0.17183774D+04 0.83285422D+04 0.83285422D+04 0.12176531D+01  1  2  5  3  5  1        1 -.141156406060D+03
0.116010896873D-02 0.000000000000D+00 0.000000000000D+00 0.828268390515D+00 0.736229956136D+00  5 21 -1 -11 11 -1 2 0.16041772D+00 0.30765624D-03 0.17202803D+04 0.83285443D+04 0.83285443D+04 0.12176530D+01  1  2 11  3  5  1        1 0.315612062144D+02
  </mgrwgt>
  </event>
  <event npLO=' -1 ' npNLO=' 0 '>
  5     66 0.13120323E+02 0.10152097E+03 0.75467711E-02 0.11315770E+00
        1 -1    0    0  501    0 0.00000000E+00 0.00000000E+00 0.67658790E+03 0.67658790E+03 0.00000000E+00 0.0000E+00 0.9000E+01
       -1 -1    0    0    0  501 0.00000000E+00 0.00000000E+00 -.38082659E+01 0.38082659E+01 0.00000000E+00 0.0000E+00 0.9000E+01
       23  2    1    2    0    0 0.00000000E+00 0.00000000E+00 0.67277963E+03 0.68039616E+03 0.10152097E+03 0.0000E+00 0.0000E+00
      -13  1    3    3    0    0 -.45272624E+02 -.21529735E+02 0.28298907E+03 0.28739512E+03 0.00000000E+00 0.0000E+00 0.9000E+01
       13  1    3    3    0    0 0.45272624E+02 0.21529735E+02 0.38979056E+03 0.39300105E+03 0.00000000E+00 0.0000E+00 0.9000E+01
#aMCatNLO 1  0  0  2  1 0.12853824D+03 0.00000000D+00  -5  5  0 0.00000000D+00 0.00000000D+00 0.00000000D+00 0.00000000D+00 0.00000000D+00
  <mgrwgt>
 0.5401881144D+03    3    2    0
 0.507604829279146D+02 0.000000000000000D+00 0.000000000000000D+00 0.507604829279146D+02
 0.507604829279146D+02 0.000000000000000D+00 0.000000000000000D+00 -.507604829279146D+02
 0.507604829279146D+02 -.452726239946535D+02 -.215297349541064D+02 -.796785143685316D+01
 0.507604829279146D+02 0.452726239946535D+02 0.215297349541064D+02 0.796785143685316D+01
 0.000000000000000D+00 0.000000000000000D+00 0.000000000000000D+00 0.000000000000000D+00
 0.134125388307878D+03 0.000000000000000D+00 0.000000000000000D+00 0.134125388307878D+03
 0.753469688029266D+02 0.000000000000000D+00 0.000000000000000D+00 -.753469688029266D+02
 0.866016336640061D+02 -.641694200783137D+02 -.576076542099039D+02 -.796785143685316D+01
 0.344889794413834D+02 0.335449239081724D+02 -.860886974768164D+00 0.796785143685316D+01
 0.883817440054154D+02 0.306244961701412D+02 0.584685411846721D+02 0.587784195049517D+02
0.496052363196D-01 0.000000000000D+00 0.000000000000D+00 0.188974701190D-01 0.000000000000D+00  5 1 -1 -13 13 21 0 0.10409045D+00 0.58588706D-03 0.25131400D+04 0.10306507D+05 0.10306507D+05 0.12079755D+01  1  2  2  2  5  2       -1 0.542758132874D+03
-.275532508655D-02 0.000000000000D+00 -.190497168826D-03 0.188974701190D-01 0.000000000000D+00  5 1 -1 -13 13 21 2 0.10409045D+00 0.58588706D-03 0.25131400D+04 0.10306507D+05 0.10306507D+05 0.12079755D+01  1  2  3  2  5  2       -1 -.482836633977D+02
0.286319416697D-02 0.000000000000D+00 0.000000000000D+00 0.188974701190D-01 0.000000000000D+00  5 1 -1 -13 13 21 2 0.10409045D+00 0.58588706D-03 0.25131400D+04 0.10306507D+05 0.10306507D+05 0.12079755D+01  1  2 15  2  5  2       -1 0.457136449473D+02
  </mgrwgt>
  </event>
  <event npLO=' -1 ' npNLO=' 0 '>
  5     66 0.13120323E+02 0.91572754E+02 0.75467711E-02 0.11729571E+00
        1 -1    0    0  501    0 0.00000000E+00 0.00000000E+00 0.57146131E+02 0.57146131E+02 0.00000000E+00 0.0000E+00 0.9000E+01
       -1 -1    0    0    0  501 0.00000000E+00 0.00000000E+00 -.36684764E+02 0.36684764E+02 0.00000000E+00 0.0000E+00 0.9000E+01
       23  2    1    2    0    0 0.00000000E+00 0.00000000E+00 0.20461367E+02 0.93830895E+02 0.91572754E+02 0.0000E+00 0.0000E+00
      -11  1    3    3    0    0 0.10671928E+02 -.31013708E+02 -.22504777E+02 0.39776943E+02 0.00000000E+00 0.0000E+00 0.9000E+01
       11  1    3    3    0    0 -.10671928E+02 0.31013708E+02 0.42966145E+02 0.54053952E+02 0.00000000E+00 0.0000E+00 0.9000E+01
#aMCatNLO 1  0  0  2  2 0.12532698D+03 0.00000000D+00  -5  5  0 0.00000000D+00 0.00000000D+00 0.00000000D+00 0.00000000D+00 0.00000000D+00
  <mgrwgt>
 0.2530303394D+03    3    2    0
 0.457863768926402D+02 0.000000000000000D+00 0.000000000000000D+00 0.457863768926402D+02
 0.457863768926402D+02 0.000000000000000D+00 0.000000000000000D+00 -.457863768926402D+02
 0.457863768926402D+02 0.106719282539345D+02 -.310137082325636D+02 -.319476471428366D+02
 0.457863768926402D+02 -.106719282539345D+02 0.310137082325636D+02 0.319476471428366D+02
 0.000000000000000D+00 -.000000000000000D+00 0.000000000000000D+00 0.000000000000000D+00
 0.157840947258484D+03 0.000000000000000D+00 0.000000000000000D+00 0.157840947258484D+03
 0.488521367100049D+02 0.000000000000000D+00 0.000000000000000D+00 -.488521367100049D+02
 0.543232348611067D+02 0.220743297186410D+02 -.379879672433850D+02 -.319476471428366D+02
 0.405736011100299D+02 -.835598630642185D+00 0.249973343379069D+02 0.319476471428366D+02
 0.111796247997352D+03 -.212387310879988D+02 0.129906329054781D+02 0.108988810548479D+03
0.234604247189D-01 0.000000000000D+00 0.000000000000D+00 0.137072207422D+01 0.000000000000D+00  5 1 -1 -11 11 21 0 0.87917124D-02 0.56438098D-02 0.10757402D+04 0.83855692D+04 0.83855692D+04 0.12173394D+01  1  2  2  2  5  2       -1 0.256556277819D+03
-.112699345572D-02 0.000000000000D+00 -.900942081922D-04 0.137072207422D+01 0.000000000000D+00  5 1 -1 -11 11 21 2 0.87917124D-02 0.56438098D-02 0.10757402D+04 0.83855692D+04 0.83855692D+04 0.12173394D+01  1  2  3  2  5  2       -1 -.212620273444D+02
0.109442940294D-02 0.000000000000D+00 0.000000000000D+00 0.137072207422D+01 0.000000000000D+00  5 1 -1 -11 11 21 2 0.87917124D-02 0.56438098D-02 0.10757402D+04 0.83855692D+04 0.83855692D+04 0.12173394D+01  1  2 15  2  5  2       -1 0.177360888980D+02
  </mgrwgt>
  </event>
  <event npLO=' -1 ' npNLO=' 0 '>
  5     66 0.13120323E+02 0.53025896E+02 0.75467711E-02 0.11762414E+00
        1 -1    0    0  501    0 0.00000000E+00 0.00000000E+00 0.34391670E+03 0.34391670E+03 0.00000000E+00 0.0000E+00 0.9000E+01
       -1 -1    0    0    0  501 0.00000000E+00 0.00000000E+00 -.58751811E+01 0.58751811E+01 0.00000000E+00 0.0000E+00 0.9000E+01
       23  2    1    2    0    0 0.00000000E+00 0.00000000E+00 0.33804152E+03 0.34979188E+03 0.89901566E+02 0.0000E+00 0.0000E+00
      -11  1    3    3    0    0 0.62807717E+01 0.17569994E+01 0.34206604E+03 0.34212821E+03 0.00000000E+00 0.0000E+00 0.9000E+01
       11  1    3    3    0    0 -.62807717E+01 -.17569994E+01 -.40245199E+01 0.76636741E+01 0.00000000E+00 0.0000E+00 0.9000E+01
#aMCatNLO 1  0  0  1  2 0.25708335D+02 0.00000000D+00  -5  5  0 0.00000000D+00 0.00000000D+00 0.00000000D+00 0.00000000D+00 0.00000000D+00
  <mgrwgt>
 0.4430210994D+03    7    2    0
 0.449507831033346D+02 0.000000000000000D+00 0.000000000000000D+00 0.449507831033346D+02
 0.449507831033346D+02 0.000000000000000D+00 0.000000000000000D+00 -.449507831033346D+02
 0.449507831033346D+02 0.628077172673148D+01 0.175699943570575D+01 0.444751364371449D+02
 0.449507831033346D+02 -.628077172673148D+01 -.175699943570575D+01 -.444751364371449D+02
 0.000000000000000D+00 0.000000000000000D+00 -.000000000000000D+00 0.000000000000000D+00
 0.977400249103115D+02 0.000000000000000D+00 0.000000000000000D+00 0.977400249103115D+02
 0.494778459029599D+02 0.000000000000000D+00 0.000000000000000D+00 -.494778459029599D+02
 0.450759058986428D+02 -.521689353167196D+01 0.515592410338319D+01 0.444751364371449D+02
 0.480722799131681D+02 -.181611157861650D+02 0.175505223535769D+01 -.444751364371449D+02
 0.540696850014605D+02 0.233780093178370D+02 -.691097633874088D+01 0.482621790073516D+02
0.275240680099D-01 0.000000000000D+00 0.000000000000D+00 0.610682470635D+00 0.000000000000D+00  5 1 -1 -11 11 21 0 0.52910262D-01 0.90387402D-03 0.42535141D+02 0.80822916D+04 0.80822916D+04 0.12190359D+01  1  2  2  1  5  1        1 0.402985410159D+03
0.539903921837D-02 0.000000000000D+00 -.105699668412D-03 0.610682470635D+00 0.000000000000D+00  5 1 -1 -11 11 21 2 0.52910262D-01 0.90387402D-03 0.42535141D+02 0.80822916D+04 0.80822916D+04 0.12190359D+01  1  2  3  1  5  1        1 0.105402687634D+03
0.100155671052D-02 0.000000000000D+00 0.000000000000D+00 0.610682470635D+00 0.000000000000D+00  5 1 -1 -11 11 21 2 0.52910262D-01 0.90387402D-03 0.42535141D+02 0.80822916D+04 0.80822916D+04 0.12190359D+01  1  2 15  1  5  1        1 0.217914043879D+02
0.460520256458D-01 0.000000000000D+00 0.000000000000D+00 0.610682470635D+00 0.000000000000D+00  5 1 -1 -11 11 21 2 0.12663350D+00 0.90387402D-03 0.62396695D+03 0.86765845D+04 0.86765845D+04 0.12157749D+01  1  2 12  1  5  1        1 0.305242539420D+03
-.438333266767D-02 0.000000000000D+00 -.954380937912D-02 0.610682470635D+00 0.000000000000D+00  5 1 -1 -11 11 21 2 0.12114332D+00 0.90387402D-03 0.42535141D+02 0.80822916D+04 0.80822916D+04 0.12190359D+01  1  2  5  1  5  1        1 -.386605088557D+03
0.439542497193D-02 0.000000000000D+00 0.000000000000D+00 0.610682470635D+00 0.000000000000D+00  5 21 -1 -11 11 -1 2 0.12663350D+00 0.90387402D-03 0.62396695D+03 0.86765845D+04 0.86765845D+04 0.12157749D+01  1  2 12  3  5  1        1 0.539187559486D+02
0.208804048787D-03 0.000000000000D+00 -.859979748340D-03 0.610682470635D+00 0.000000000000D+00  5 21 -1 -11 11 -1 2 0.12114332D+00 0.90387402D-03 0.42535141D+02 0.80822916D+04 0.80822916D+04 0.12190359D+01  1  2  5  3  5  1        1 -.597146095480D+02
  </mgrwgt>
  </event>
  <event npLO=' -1 ' npNLO=' 0 '>
  5     66 0.13120323E+02 0.48486196E+02 0.75467711E-02 0.11483917E+00
        3 -1    0    0  501    0 0.00000000E+00 0.00000000E+00 0.62926275E+01 0.62926275E+01 0.00000000E+00 0.0000E+00 0.9000E+01
       -3 -1    0    0    0  501 0.00000000E+00 0.00000000E+00 -.34243964E+03 0.34243964E+03 0.00000000E+00 0.0000E+00 0.9000E+01
       23  2    1    2    0    0 0.00000000E+00 0.00000000E+00 -.33614702E+03 0.34873227E+03 0.92840618E+02 0.0000E+00 0.0000E+00
      -13  1    3    3    0    0 0.42076425E+02 0.85719331E+01 -.23430941E+03 0.23821168E+03 0.00000000E+00 0.0000E+00 0.9000E+01
       13  1    3    3    0    0 -.42076425E+02 -.85719331E+01 -.10183760E+03 0.11052059E+03 0.00000000E+00 0.0000E+00 0.9000E+01
#aMCatNLO 1  0  0  2  1 0.70638506D+02 0.00000000D+00  -5  5  0 0.00000000D+00 0.00000000D+00 0.00000000D+00 0.00000000D+00 0.00000000D+00
  <mgrwgt>
 0.1593726965D+03    7    2    0
 0.464203091887601D+02 0.000000000000000D+00 0.000000000000000D+00 0.464203091887601D+02
 0.464203091887601D+02 0.000000000000000D+00 0.000000000000000D+00 -.464203091887601D+02
 0.464203091887601D+02 0.420764249281663D+02 0.857193306629572D+01 -.176335343579051D+02
 0.464203091887601D+02 -.420764249281663D+02 -.857193306629572D+01 0.176335343579051D+02
 0.000000000000000D+00 -.000000000000000D+00 -.000000000000000D+00 -.000000000000000D+00
 0.713668709779663D+02 0.000000000000000D+00 0.000000000000000D+00 0.713668709779663D+02
 0.105118095501796D+03 0.000000000000000D+00 0.000000000000000D+00 -.105118095501796D+03
 0.711600073635434D+02 0.570169364615696D+02 0.387540200568337D+02 -.176335343579051D+02
 0.382747491137302D+02 -.313145258918787D+02 0.131687263596154D+02 0.176335343579051D+02
 0.670502100024882D+02 -.257024105696909D+02 -.519227464164491D+02 -.337512245238293D+02
0.497271266866D-01 0.000000000000D+00 0.000000000000D+00 0.415392512240D+00 0.000000000000D+00  5 3 -3 -13 13 21 0 0.96809653D-03 0.52683022D-01 0.18439036D+04 0.86193804D+04 0.86193804D+04 0.12160777D+01  1  2  2  2  5  2       -3 0.176194665574D+03
-.274222581777D-02 0.000000000000D+00 -.190965259930D-03 0.415392512240D+00 0.000000000000D+00  5 3 -3 -13 13 21 2 0.96809653D-03 0.52683022D-01 0.18439036D+04 0.86193804D+04 0.86193804D+04 0.12160777D+01  1  2  3  2  5  2       -3 -.159120680918D+02
0.264801198618D-02 0.000000000000D+00 0.000000000000D+00 0.415392512240D+00 0.000000000000D+00  5 3 -3 -13 13 21 2 0.96809653D-03 0.52683022D-01 0.18439036D+04 0.86193804D+04 0.86193804D+04 0.12160777D+01  1  2 15  2  5  2       -3 0.138752878719D+02
0.288087428657D-02 0.000000000000D+00 0.000000000000D+00 0.415392512240D+00 0.000000000000D+00  5 3 -3 -13 13 21 2 0.96809653D-03 0.18341243D+00 0.64679741D+04 0.11975966D+05 0.11975966D+05 0.12012958D+01  1  2 12  2  5  2       -3 0.637705094096D+00
0.148075970621D-02 0.000000000000D+00 -.145482966253D-01 0.415392512240D+00 0.000000000000D+00  5 3 -3 -13 13 21 2 0.96809653D-03 0.16414766D+00 0.18439036D+04 0.86193804D+04 0.86193804D+04 0.12160777D+01  1  2  5  2  5  2       -3 -.654597988859D+01
0.420064326567D-03 0.000000000000D+00 0.000000000000D+00 0.415392512240D+00 0.000000000000D+00  5 3 21 -13 13 3 2 0.96809653D-03 0.18341243D+00 0.64679741D+04 0.11975966D+05 0.11975966D+05 0.12012958D+01  1  2 12  4  5  2       -3 0.146949907089D+01
0.864756865218D-03 0.000000000000D+00 -.189468683488D-02 0.415392512240D+00 0.000000000000D+00  5 3 21 -13 13 3 2 0.96809653D-03 0.16414766D+00 0.18439036D+04 0.86193804D+04 0.86193804D+04 0.12160777D+01  1  2  5  4  5  2       -3 -.103464131361D+02
  </mgrwgt>
  </event>
  <event npLO=' -1 ' npNLO=' 0 '>
  5     66 0.13120323E+02 0.43289706E+02 0.75467711E-02 0.11919362E+00
        3 -1    0    0  501    0 0.00000000E+00 0.00000000E+00 0.13017033E+03 0.13017033E+03 0.00000000E+00 0.0000E+00 0.9000E+01
       -3 -1    0    0    0  501 0.00000000E+00 0.00000000E+00 -.13055836E+02 0.13055836E+02 0.00000000E+00 0.0000E+00 0.9000E+01
       23  2    1    2    0    0 0.00000000E+00 0.00000000E+00 0.11711449E+03 0.14322617E+03 0.82449561E+02 0.0000E+00 0.0000E+00
      -11  1    3    3    0    0 0.85710177E+01 0.29032925E+02 0.99450495E+01 0.31863413E+02 0.00000000E+00 0.0000E+00 0.9000E+01
       11  1    3    3    0    0 -.85710177E+01 -.29032925E+02 0.10716945E+03 0.11136275E+03 0.00000000E+00 0.0000E+00 0.9000E+01
#aMCatNLO 1  0  0  2  1 0.59329373D+02 0.00000000D+00  -5  5  0 0.00000000D+00 0.00000000D+00 0.00000000D+00 0.00000000D+00 0.00000000D+00
  <mgrwgt>
 0.1282731782D+03    5    2    0
 0.412247806411174D+02 0.000000000000000D+00 0.000000000000000D+00 0.412247806411174D+02
 0.412247806411174D+02 0.000000000000000D+00 0.000000000000000D+00 -.412247806411174D+02
 0.412247806411174D+02 0.857101773644508D+01 0.290329249912165D+02 -.279840929873418D+02
 0.412247806411174D+02 -.857101773644508D+01 -.290329249912165D+02 0.279840929873418D+02
 0.000000000000000D+00 0.000000000000000D+00 -.000000000000000D+00 0.000000000000000D+00
 0.786586103351857D+02 0.000000000000000D+00 0.000000000000000D+00 0.786586103351857D+02
 0.460623901140473D+02 0.000000000000000D+00 0.000000000000000D+00 -.460623901140473D+02
 0.493189366062188D+02 0.478890397306888D+01 0.403275891466471D+02 -.279840929873418D+02
 0.360345502135565D+02 -.117982276131557D+02 -.193953905337662D+02 0.279840929873418D+02
 0.393675136294575D+02 0.700932364008683D+01 -.209321986128809D+02 0.325962202211384D+02
0.154389774082D-01 0.000000000000D+00 0.000000000000D+00 0.161173324874D-01 0.000000000000D+00  5 3 -3 -11 11 21 0 0.20026205D-01 0.20085902D-02 0.91637308D+03 0.67979302D+04 0.67979302D+04 0.12271077D+01  1  2  2  2  5  2       -3 0.124655410005D+03
-.758258278892D-03 0.000000000000D+00 -.592897384235D-04 0.161173324874D-01 0.000000000000D+00  5 3 -3 -11 11 21 2 0.20026205D-01 0.20085902D-02 0.91637308D+03 0.67979302D+04 0.67979302D+04 0.12271077D+01  1  2  3  2  5  2       -3 -.106633378990D+02
0.776350647951D-03 0.000000000000D+00 0.000000000000D+00 0.161173324874D-01 0.000000000000D+00  5 3 -3 -11 11 21 2 0.20026205D-01 0.20085902D-02 0.91637308D+03 0.67979302D+04 0.67979302D+04 0.12271077D+01  1  2 15  2  5  2       -3 0.943878019432D+01
0.481209642025D-03 0.000000000000D+00 0.000000000000D+00 0.161173324874D-01 0.000000000000D+00  5 3 -3 -11 11 21 2 0.20026205D-01 0.42822042D-02 0.18227560D+04 0.72852177D+04 0.72852177D+04 0.12238591D+01  1  2 12  2  5  2       -3 0.195515304945D+01
0.394167557682D-04 0.000000000000D+00 0.000000000000D+00 0.161173324874D-01 0.000000000000D+00  5 3 21 -11 11 3 2 0.20026205D-01 0.42822042D-02 0.18227560D+04 0.72852177D+04 0.72852177D+04 0.12238591D+01  1  2 12  4  5  2       -3 0.288717283120D+01
  </mgrwgt>
  </event>
  <event npLO=' -1 ' npNLO=' 0 '>
  5     66 0.13120323E+02 0.45593853E+02 0.75467711E-02 0.11780214E+00
        1 -1    0    0  501    0 0.00000000E+00 0.00000000E+00 0.18080316E+02 0.18080316E+02 0.00000000E+00 0.0000E+00 0.9000E+01
       -1 -1    0    0    0  501 0.00000000E+00 0.00000000E+00 -.11556171E+03 0.11556171E+03 0.00000000E+00 0.0000E+00 0.9000E+01
       23  2    1    2    0    0 0.00000000E+00 0.00000000E+00 -.97481397E+02 0.13364203E+03 0.91419740E+02 0.0000E+00 0.0000E+00
      -13  1    3    3    0    0 0.20263717E+02 0.39932505E+02 -.35329143E+02 0.57038334E+02 0.00000000E+00 0.0000E+00 0.9000E+01
       13  1    3    3    0    0 -.20263717E+02 -.39932505E+02 -.62152254E+02 0.76603694E+02 0.00000000E+00 0.0000E+00 0.9000E+01
#aMCatNLO 1  0  0  2  1 0.12545510D+02 0.00000000D+00  -5  5  0 0.00000000D+00 0.00000000D+00 0.00000000D+00 0.00000000D+00 0.00000000D+00
  <mgrwgt>
 0.4179908738D+03    9    2    0
 0.457098701472640D+02 0.000000000000000D+00 0.000000000000000D+00 0.457098701472640D+02
 0.457098701472640D+02 0.000000000000000D+00 0.000000000000000D+00 -.457098701472640D+02
 0.457098701472640D+02 0.202637174550460D+02 0.399325053733739D+02 0.917436637524755D+01
 0.457098701472640D+02 -.202637174550460D+02 -.399325053733739D+02 -.917436637524755D+01
 0.000000000000000D+00 -.000000000000000D+00 -.000000000000000D+00 -.000000000000000D+00
 0.474223117083643D+02 0.000000000000000D+00 0.000000000000000D+00 0.474223117083643D+02
 0.740217140511555D+02 0.000000000000000D+00 0.000000000000000D+00 -.740217140511555D+02
 0.516786252286290D+02 0.249614832673218D+02 0.443106720805387D+02 0.917436637524755D+01
 0.405395467362788D+02 -.161032715995026D+02 -.360551035914240D+02 -.917436637524755D+01
 0.292258537946120D+02 -.885821166781921D+01 -.825556848911471D+01 -.265994023427912D+02
0.329917031596D-01 0.000000000000D+00 0.000000000000D+00 0.771295698155D+00 0.000000000000D+00  5 1 -1 -13 13 21 0 0.27815870D-02 0.17778725D-01 0.20052232D+04 0.83575689D+04 0.83575689D+04 0.12174931D+01  1  2  2  2  5  2       -1 0.314204781564D+03
-.183193047743D-02 0.000000000000D+00 -.126696827048D-03 0.771295698155D+00 0.000000000000D+00  5 1 -1 -13 13 21 2 0.27815870D-02 0.17778725D-01 0.20052232D+04 0.83575689D+04 0.83575689D+04 0.12174931D+01  1  2  3  2  5  2       -1 -.284143136651D+02
0.160625905765D-02 0.000000000000D+00 0.000000000000D+00 0.771295698155D+00 0.000000000000D+00  5 1 -1 -13 13 21 2 0.27815870D-02 0.17778725D-01 0.20052232D+04 0.83575689D+04 0.83575689D+04 0.12174931D+01  1  2 15  2  5  2       -1 0.226754884813D+02
0.822823872453D-01 0.000000000000D+00 0.000000000000D+00 0.771295698155D+00 0.000000000000D+00  5 1 -1 -13 13 21 2 0.27815870D-02 0.29869125D-01 0.26242219D+04 0.85041912D+04 0.85041912D+04 0.12166944D+01  1  2 12  2  5  2       -1 0.515387588696D+03
-.762034653455D-01 0.000000000000D+00 0.000000000000D+00 0.771295698155D+00 0.000000000000D+00  5 1 -1 -13 13 21 2 0.27815870D-02 0.17778725D-01 0.20052232D+04 0.83575689D+04 0.83575689D+04 0.12174931D+01  1  2  4  2  5  2       -1 -.107576096922D+04
-.873430511324D-01 0.000000000000D+00 -.112205466308D-01 0.771295698155D+00 0.000000000000D+00  5 1 -1 -13 13 21 2 0.27815870D-02 0.29592297D-01 0.20052232D+04 0.83575689D+04 0.83575689D+04 0.12174931D+01  1  2  5  2  5  2       -1 -.657313230359D+03
0.833226261344D-01 0.000000000000D+00 0.990659978744D-02 0.771295698155D+00 0.000000000000D+00  5 1 -1 -13 13 21 2 0.27815870D-02 0.17778725D-01 0.20052232D+04 0.83575689D+04 0.83575689D+04 0.12174931D+01  1  2  6  2  5  2       -1 0.137588691962D+04
0.477845431117D-02 0.000000000000D+00 0.000000000000D+00 0.771295698155D+00 0.000000000000D+00  5 1 21 -13 13 1 2 0.27815870D-02 0.29869125D-01 0.26242219D+04 0.85041912D+04 0.85041912D+04 0.12166944D+01  1  2 12  4  5  2       -1 0.323694602831D+03
-.448221425468D-02 0.000000000000D+00 -.642206028924D-03 0.771295698155D+00 0.000000000000D+00  5 1 21 -13 13 1 2 0.27815870D-02 0.29592297D-01 0.20052232D+04 0.83575689D+04 0.83575689D+04 0.12174931D+01  1  2  5  4  5  2       -1 -.372369994136D+03
  </mgrwgt>
  </event>
  <event npLO=' -1 ' npNLO=' 0 '>
  5     66 0.13120323E+02 0.48679334E+02 0.75467711E-02 0.11677534E+00
        5 -1    0    0  501    0 0.00000000E+00 0.00000000E+00 0.21016709E+01 0.21016709E+01 0.00000000E+00 0.0000E+00 0.9000E+01
       -5 -1    0    0    0  501 0.00000000E+00 0.00000000E+00 -.95177906E+03 0.95177906E+03 0.00000000E+00 0.0000E+00 0.9000E+01
       23  2    1    2    0    0 0.00000000E+00 0.00000000E+00 -.94967738E+03 0.95388073E+03 0.89450016E+02 0.0000E+00 0.0000E+00
      -13  1    3    3    0    0 0.13958777E+02 0.26626151E+02 -.82795951E+03 0.82850512E+03 0.00000000E+00 0.0000E+00 0.9000E+01
       13  1    3    3    0    0 -.13958777E+02 -.26626151E+02 -.12171788E+03 0.12537560E+03 0.00000000E+00 0.0000E+00 0.9000E+01
#aMCatNLO 1  0  0  1  2 0.87354186D+02 0.00000000D+00  -5  5  0 0.00000000D+00 0.00000000D+00 0.00000000D+00 0.00000000D+00 0.00000000D+00
  <mgrwgt>
 0.6686326667D+02    5    2    0
 0.447250079198596D+02 0.000000000000000D+00 0.000000000000000D+00 0.447250079198596D+02
 0.447250079198596D+02 0.000000000000000D+00 0.000000000000000D+00 -.447250079198596D+02
 0.447250079198596D+02 0.139587766678620D+02 0.266261505107839D+02 -.331138490113326D+02
 0.447250079198596D+02 -.139587766678620D+02 -.266261505107839D+02 0.331138490113326D+02
 0.000000000000000D+00 -.000000000000000D+00 0.000000000000000D+00 -.000000000000000D+00
 0.563237277670609D+02 0.000000000000000D+00 0.000000000000000D+00 0.563237277670609D+02
 0.101091522183109D+03 0.000000000000000D+00 0.000000000000000D+00 -.101091522183109D+03
 0.490212016514441D+02 0.315459918110722D+02 0.176465751822266D+02 -.331138490113326D+02
 0.487352445742721D+02 0.357479162753485D+01 -.355783351520063D+02 0.331138490113326D+02
 0.596588037244534D+02 -.351207834386071D+02 0.179317599697797D+02 -.447677944160479D+02
0.263493920858D+00 0.000000000000D+00 0.000000000000D+00 0.456228193796D+00 0.000000000000D+00  5 5 -5 -13 13 21 0 0.32333398D-03 0.14642755D+00 0.90379934D+03 0.80013053D+04 0.80013053D+04 0.12195010D+01  1  2  2  1  5  1        5 0.672512984402D+02
-.118301330665D-01 0.000000000000D+00 -.101188603564D-02 0.456228193796D+00 0.000000000000D+00  5 5 -5 -13 13 21 2 0.32333398D-03 0.14642755D+00 0.90379934D+03 0.80013053D+04 0.80013053D+04 0.12195010D+01  1  2  3  1  5  1        5 -.532798147078D+01
0.129664923311D-01 0.000000000000D+00 0.000000000000D+00 0.456228193796D+00 0.000000000000D+00  5 5 -5 -13 13 21 2 0.32333398D-03 0.14642755D+00 0.90379934D+03 0.80013053D+04 0.80013053D+04 0.12195010D+01  1  2 15  1  5  1        5 0.492172008315D+01
0.422038816688D-04 0.000000000000D+00 0.000000000000D+00 0.456228193796D+00 0.000000000000D+00  5 5 -5 -13 13 21 2 0.92035765D-03 0.14642755D+00 0.30990060D+04 0.95563228D+04 0.95563228D+04 0.12113803D+01  1  2 12  1  5  1        5 0.362316077699D-02
0.497332494576D-05 0.000000000000D+00 0.000000000000D+00 0.456228193796D+00 0.000000000000D+00  5 21 -5 -13 13 -5 2 0.92035765D-03 0.14642755D+00 0.30990060D+04 0.95563228D+04 0.95563228D+04 0.12113803D+01  1  2 12  3  5  1        5 0.146064604808D-01
  </mgrwgt>
  </event>
  <event npLO=' -1 ' npNLO=' 0 '>
  5     66 0.13120323E+02 0.47945198E+02 0.75467711E-02 0.11740401E+00
        1 -1    0    0  501    0 0.00000000E+00 0.00000000E+00 0.10638228E+02 0.10638228E+02 0.00000000E+00 0.0000E+00 0.9000E+01
       -1 -1    0    0    0  501 0.00000000E+00 0.00000000E+00 -.20367844E+03 0.20367844E+03 0.00000000E+00 0.0000E+00 0.9000E+01
       23  2    1    2    0    0 0.00000000E+00 0.00000000E+00 -.19304021E+03 0.21431667E+03 0.93097318E+02 0.0000E+00 0.0000E+00
      -11  1    3    3    0    0 0.18815769E+01 0.35229879E+02 -.16642477E+03 0.17012315E+03 0.00000000E+00 0.0000E+00 0.9000E+01
       11  1    3    3    0    0 -.18815769E+01 -.35229879E+02 -.26615445E+02 0.44193513E+02 0.00000000E+00 0.0000E+00 0.9000E+01
#aMCatNLO 1  0  0  2  1 0.15634141D+02 0.00000000D+00  -5  5  0 0.00000000D+00 0.00000000D+00 0.00000000D+00 0.00000000D+00 0.00000000D+00
  <mgrwgt>
 0.4090540049D+03    9    2    0
 0.465486589198669D+02 0.000000000000000D+00 0.000000000000000D+00 0.465486589198669D+02
 0.465486589198669D+02 0.000000000000000D+00 0.000000000000000D+00 -.465486589198669D+02
 0.465486589198669D+02 0.188157692605946D+01 0.352298788839916D+02 -.303659834243633D+02
 0.465486589198669D+02 -.188157692605946D+01 -.352298788839916D+02 0.303659834243633D+02
 0.000000000000000D+00 -.000000000000000D+00 -.000000000000000D+00 -.000000000000000D+00
 0.486803593871630D+02 0.000000000000000D+00 0.000000000000000D+00 0.486803593871630D+02
 0.846430671671945D+02 0.000000000000000D+00 0.000000000000000D+00 -.846430671671945D+02
 0.528203578091936D+02 0.349075564728740D+01 0.430779743578254D+02 -.303659834243633D+02
 0.414951385601640D+02 -.455798447972402D+00 -.282762413091509D+02 0.303659834243633D+02
 0.390079301850000D+02 -.303495719931500D+01 -.148017330486745D+02 -.359627077800315D+02
0.372101162626D-01 0.000000000000D+00 0.000000000000D+00 0.454146932939D+00 0.000000000000D+00  5 1 -1 -11 11 21 0 0.16366504D-02 0.31335144D-01 0.12446847D+04 0.86671106D+04 0.86671106D+04 0.12158249D+01  1  2  2  2  5  2       -1 0.300065369315D+03
-.187412434512D-02 0.000000000000D+00 -.142896644097D-03 0.454146932939D+00 0.000000000000D+00  5 1 -1 -11 11 21 2 0.16366504D-02 0.31335144D-01 0.12446847D+04 0.86671106D+04 0.86671106D+04 0.12158249D+01  1  2  3  2  5  2       -1 -.256463505359D+02
0.191662647204D-02 0.000000000000D+00 0.000000000000D+00 0.454146932939D+00 0.000000000000D+00  5 1 -1 -11 11 21 2 0.16366504D-02 0.31335144D-01 0.12446847D+04 0.86671106D+04 0.86671106D+04 0.12158249D+01  1  2 15  2  5  2       -1 0.228472738307D+02
0.866056706298D-01 0.000000000000D+00 0.000000000000D+00 0.454146932939D+00 0.000000000000D+00  5 1 -1 -11 11 21 2 0.16366504D-02 0.59588509D-01 0.18752696D+04 0.88954129D+04 0.88954129D+04 0.12146367D+01  1  2 12  2  5  2       -1 0.344846959278D+03
-.753821850365D-01 0.000000000000D+00 0.000000000000D+00 0.454146932939D+00 0.000000000000D+00  5 1 -1 -11 11 21 2 0.16366504D-02 0.31335144D-01 0.12446847D+04 0.86671106D+04 0.86671106D+04 0.12158249D+01  1  2  4  2  5  2       -1 -.898598369903D+03
-.804276369904D-01 0.000000000000D+00 -.113740656091D-01 0.454146932939D+00 0.000000000000D+00  5 1 -1 -11 11 21 2 0.16366504D-02 0.58550494D-01 0.12446847D+04 0.86671106D+04 0.86671106D+04 0.12158249D+01  1  2  5  2  5  2       -1 -.421555203996D+03
0.744254124162D-01 0.000000000000D+00 0.946377300122D-02 0.454146932939D+00 0.000000000000D+00  5 1 -1 -11 11 21 2 0.16366504D-02 0.31335144D-01 0.12446847D+04 0.86671106D+04 0.86671106D+04 0.12158249D+01  1  2  6  2  5  2       -1 0.110612505443D+04
0.604762902121D-02 0.000000000000D+00 0.000000000000D+00 0.454146932939D+00 0.000000000000D+00  5 1 21 -11 11 1 2 0.16366504D-02 0.59588509D-01 0.18752696D+04 0.88954129D+04 0.88954129D+04 0.12146367D+01  1  2 12  4  5  2       -1 0.210204625452D+03
-.483915499395D-02 0.000000000000D+00 -.774395256021D-03 0.454146932939D+00 0.000000000000D+00  5 1 21 -11 11 1 2 0.16366504D-02 0.58550494D-01 0.12446847D+04 0.86671106D+04 0.86671106D+04 0.12158249D+01  1  2  5  4  5  2       -1 -.229235353018D+03
  </mgrwgt>
  </event>
  <event npLO=' -1 ' npNLO=' 0 '>
  5     66 0.13120323E+02 0.44436256E+02 0.75467711E-02 0.11766952E+00
        1 -1    0    0  501    0 0.00000000E+00 0.00000000E+00 0.11601428E+03 0.11601428E+03 0.00000000E+00 0.0000E+00 0.9000E+01
       -1 -1    0    0    0  501 0.00000000E+00 0.00000000E+00 -.17740143E+02 0.17740143E+02 0.00000000E+00 0.0000E+00 0.9000E+01
       23  2    1    2    0    0 0.00000000E+00 0.00000000E+00 0.98274132E+02 0.13375442E+03 0.90732790E+02 0.0000E+00 0.0000E+00
      -13  1    3    3    0    0 0.12745630E+02 0.30173458E+02 0.28658698E+01 0.32880113E+02 0.00000000E+00 0.0000E+00 0.9000E+01
       13  1    3    3    0    0 -.12745630E+02 -.30173458E+02 0.95408263E+02 0.10087430E+03 0.00000000E+00 0.0000E+00 0.9000E+01
#aMCatNLO 1  0  0  2  1 0.32702501D+02 0.00000000D+00  -5  5  0 0.00000000D+00 0.00000000D+00 0.00000000D+00 0.00000000D+00 0.00000000D+00
  <mgrwgt>
 0.2482345574D+03    6    2    0
 0.453663948115207D+02 0.000000000000000D+00 0.000000000000000D+00 0.453663948115207D+02
 0.453663948115207D+02 0.000000000000000D+00 0.000000000000000D+00 -.453663948115207D+02
 0.453663948115207D+02 0.127456295406905D+02 0.301734581556835D+02 -.313882323289074D+02
 0.453663948115207D+02 -.127456295406905D+02 -.301734581556835D+02 0.313882323289074D+02
 0.000000000000000D+00 -.000000000000000D+00 -.000000000000000D+00 0.000000000000000D+00
 0.601400701562712D+02 0.000000000000000D+00 0.000000000000000D+00 0.601400701562712D+02
 0.537587430106848D+02 0.000000000000000D+00 0.000000000000000D+00 -.537587430106848D+02
 0.536717641275061D+02 0.171497704854976D+02 0.400165279368406D+02 -.313882323289074D+02
 0.392381478768337D+02 -.898333897953561D+01 -.217648969868813D+02 0.313882323289074D+02
 0.209889011626163D+02 -.816643150596195D+01 -.182516309499592D+02 0.638132714558639D+01
0.198227314326D-01 0.000000000000D+00 0.000000000000D+00 0.124471109010D+01 0.000000000000D+00  5 1 -1 -13 13 21 0 0.17848350D-01 0.27292527D-02 0.10728886D+04 0.82324391D+04 0.82324391D+04 0.12181872D+01  1  2  2  2  5  2       -1 0.242870272196D+03
-.959209204963D-03 0.000000000000D+00 -.761245081462D-04 0.124471109010D+01 0.000000000000D+00  5 1 -1 -13 13 21 2 0.17848350D-01 0.27292527D-02 0.10728886D+04 0.82324391D+04 0.82324391D+04 0.12181872D+01  1  2  3  2  5  2       -1 -.202606248564D+02
0.952647623331D-03 0.000000000000D+00 0.000000000000D+00 0.124471109010D+01 0.000000000000D+00  5 1 -1 -13 13 21 2 0.17848350D-01 0.27292527D-02 0.10728886D+04 0.82324391D+04 0.82324391D+04 0.12181872D+01  1  2 15  2  5  2       -1 0.173209303323D+02
0.508564841155D-02 0.000000000000D+00 0.000000000000D+00 0.124471109010D+01 0.000000000000D+00  5 1 -1 -13 13 21 2 0.17848350D-01 0.42873432D-02 0.18956389D+04 0.86322517D+04 0.86322517D+04 0.12160094D+01  1  2 12  2  5  2       -1 0.487240167255D+02
-.448648444813D-02 0.000000000000D+00 0.000000000000D+00 0.124471109010D+01 0.000000000000D+00  5 1 -1 -13 13 21 2 0.17848350D-01 0.27292527D-02 0.10728886D+04 0.82324391D+04 0.82324391D+04 0.12181872D+01  1  2  4  2  5  2       -1 -.815727480548D+02
0.265006781741D-03 0.000000000000D+00 0.000000000000D+00 0.124471109010D+01 0.000000000000D+00  5 1 21 -13 13 1 2 0.17848350D-01 0.42873432D-02 0.18956389D+04 0.86322517D+04 0.86322517D+04 0.12160094D+01  1  2 12  4  5  2       -1 0.411527110458D+02
  </mgrwgt>
  </event>
  <event npLO=' -1 ' npNLO=' 0 '>
  5     66 0.13120323E+02 0.53044116E+02 0.75467711E-02 0.11724764E+00
        3 -1    0    0  501    0 0.00000000E+00 0.00000000E+00 0.11415721E+03 0.11415721E+03 0.00000000E+00 0.0000E+00 0.9000E+01
       -3 -1    0    0    0  501 0.00000000E+00 0.00000000E+00 -.17118869E+02 0.17118869E+02 0.00000000E+00 0.0000E+00 0.9000E+01
       23  2    1    2    0    0 0.00000000E+00 0.00000000E+00 0.97038339E+02 0.13127608E+03 0.88413626E+02 0.0000E+00 0.0000E+00
      -13  1    3    3    0    0 -.22767322E+02 -.34079408E+02 0.23919690E+02 0.47454279E+02 0.00000000E+00 0.0000E+00 0.9000E+01
       13  1    3    3    0    0 0.22767322E+02 0.34079408E+02 0.73118649E+02 0.83821798E+02 0.00000000E+00 0.0000E+00 0.9000E+01
#aMCatNLO 1  0  0  2  1 0.63284005D+02 0.00000000D+00  -5  5  0 0.00000000D+00 0.00000000D+00 0.00000000D+00 0.00000000D+00 0.00000000D+00
  <mgrwgt>
 0.1738733144D+03    5    2    0
 0.442068131043375D+02 0.000000000000000D+00 0.000000000000000D+00 0.442068131043375D+02
 0.442068131043375D+02 0.000000000000000D+00 0.000000000000000D+00 -.442068131043375D+02
 0.442068131043375D+02 -.227673223307540D+02 -.340794083742492D+02 -.165675973994583D+02
 0.442068131043375D+02 0.227673223307540D+02 0.340794083742492D+02 0.165675973994583D+02
 0.000000000000000D+00 -.000000000000000D+00 0.000000000000000D+00 0.000000000000000D+00
 0.782028819711849D+02 0.000000000000000D+00 0.000000000000000D+00 0.782028819711849D+02
 0.576824910397320D+02 0.000000000000000D+00 0.000000000000000D+00 -.576824910397320D+02
 0.414853534269016D+02 -.669164695558320D+01 -.374402340589136D+02 -.165675973994583D+02
 0.536710158006607D+02 0.411290030723613D+02 0.302406640098714D+02 0.165675973994583D+02
 0.407290037833546D+02 -.344373561167781D+02 0.719957004904222D+01 0.205203909314529D+02
0.243375484208D-01 0.000000000000D+00 0.000000000000D+00 0.150088634783D+00 0.000000000000D+00  5 3 -3 -13 13 21 0 0.17562647D-01 0.26336722D-02 0.16797570D+04 0.78169693D+04 0.78169693D+04 0.12205797D+01  1  2  2  2  5  2       -3 0.169230031419D+03
-.134267124345D-02 0.000000000000D+00 -.934625941594D-04 0.150088634783D+00 0.000000000000D+00  5 3 -3 -13 13 21 2 0.17562647D-01 0.26336722D-02 0.16797570D+04 0.78169693D+04 0.78169693D+04 0.12205797D+01  1  2  3  2  5  2       -3 -.153979842125D+02
0.122369040600D-02 0.000000000000D+00 0.000000000000D+00 0.150088634783D+00 0.000000000000D+00  5 3 -3 -13 13 21 2 0.17562647D-01 0.26336722D-02 0.16797570D+04 0.78169693D+04 0.78169693D+04 0.12205797D+01  1  2 15  2  5  2       -3 0.126766489633D+02
0.945207695942D-03 0.000000000000D+00 0.000000000000D+00 0.150088634783D+00 0.000000000000D+00  5 3 -3 -13 13 21 2 0.17562647D-01 0.60792509D-02 0.38604675D+04 0.90547346D+04 0.90547346D+04 0.12138275D+01  1  2 12  2  5  2       -3 0.285107349545D+01
0.860832011625D-04 0.000000000000D+00 0.000000000000D+00 0.150088634783D+00 0.000000000000D+00  5 3 21 -13 13 3 2 0.17562647D-01 0.60792509D-02 0.38604675D+04 0.90547346D+04 0.90547346D+04 0.12138275D+01  1  2 12  4  5  2       -3 0.451354477085D+01
  </mgrwgt>
  </event>
  <event npLO=' -1 ' npNLO=' 0 '>
  5     66 0.13120323E+02 0.27617165E+02 0.75467711E-02 0.11796634E+00
        1 -1    0    0  501    0 0.00000000E+00 0.00000000E+00 0.15012614E+02 0.15012614E+02 0.00000000E+00 0.0000E+00 0.9000E+01
       -1 -1    0    0    0  501 0.00000000E+00 0.00000000E+00 -.13898927E+03 0.13898927E+03 0.00000000E+00 0.0000E+00 0.9000E+01
       23  2    1    2    0    0 0.00000000E+00 0.00000000E+00 -.12397666E+03 0.15400189E+03 0.91358465E+02 0.0000E+00 0.0000E+00
      -13  1    3    3    0    0 0.99739665E+01 -.43741301E+02 -.47506034E+02 0.65342212E+02 0.00000000E+00 0.0000E+00 0.9000E+01
       13  1    3    3    0    0 -.99739665E+01 0.43741301E+02 -.76470624E+02 0.88659673E+02 0.00000000E+00 0.0000E+00 0.9000E+01
#aMCatNLO 1  0  0  1  2 0.23872177D+01 0.00000000D+00  -5  5  0 0.00000000D+00 0.00000000D+00 0.00000000D+00 0.00000000D+00 0.00000000D+00
  <mgrwgt>
 0.4126106111D+03    8    2    0
 0.456792327021229D+02 0.000000000000000D+00 0.000000000000000D+00 0.456792327021229D+02
 0.456792327021229D+02 0.000000000000000D+00 0.000000000000000D+00 -.456792327021229D+02
 0.456792327021229D+02 0.997396652455809D+01 -.437413011680649D+02 0.859132493544087D+01
 0.456792327021229D+02 -.997396652455809D+01 0.437413011680649D+02 -.859132493544087D+01
 0.000000000000000D+00 0.000000000000000D+00 -.000000000000000D+00 -.000000000000000D+00
 0.463063710915818D+02 0.000000000000000D+00 0.000000000000000D+00 0.463063710915818D+02
 0.466106720214158D+02 0.000000000000000D+00 0.000000000000000D+00 -.466106720214158D+02
 0.449454548798918D+02 0.988638670512799D+01 -.429946788350690D+02 0.859132493544087D+01
 0.464255839196109D+02 -.100629767426741D+02 0.445001177212702D+02 -.859132493544087D+01
 0.154600431349500D+01 0.176590037546142D+00 -.150543888620122D+01 -.304300929833983D+00
0.341342745290D-01 0.000000000000D+00 0.000000000000D+00 0.782510906294D+00 0.000000000000D+00  5 1 -1 -13 13 21 0 0.23096329D-02 0.21382965D-01 0.20127814D+04 0.83463692D+04 0.83463692D+04 0.12175547D+01  1  2  2  1  5  1        1 0.315119599859D+03
-.189560093363D-02 0.000000000000D+00 -.131084601952D-03 0.782510906294D+00 0.000000000000D+00  5 1 -1 -13 13 21 2 0.23096329D-02 0.21382965D-01 0.20127814D+04 0.83463692D+04 0.83463692D+04 0.12175547D+01  1  2  3  1  5  1        1 -.284938792870D+02
0.180241417461D-02 0.000000000000D+00 0.000000000000D+00 0.782510906294D+00 0.000000000000D+00  5 1 -1 -13 13 21 2 0.23096329D-02 0.21382965D-01 0.20127814D+04 0.83463692D+04 0.83463692D+04 0.12175547D+01  1  2 15  1  5  1        1 0.246669993953D+02
0.973270391568D-04 0.000000000000D+00 0.000000000000D+00 0.782510906294D+00 0.000000000000D+00  5 1 -1 -13 13 21 2 0.23890843D-02 0.21382965D-01 0.20819226D+04 0.83486667D+04 0.83486667D+04 0.12175421D+01  1  2 12  1  5  1        1 0.127212512192D+01
-.114752186723D+00 0.000000000000D+00 0.000000000000D+00 0.782510906294D+00 0.000000000000D+00  5 1 -1 -13 13 21 2 0.23096329D-02 0.21382965D-01 0.20127814D+04 0.83463692D+04 0.83463692D+04 0.12175547D+01  1  2  4  1  5  1        1 -.157044488463D+04
0.114732283518D+00 0.000000000000D+00 0.000000000000D+00 0.782510906294D+00 0.269430407166D+01  5 1 -1 -13 13 21 2 0.23413423D-02 0.21818982D-01 0.20819226D+04 0.83486667D+04 0.83486667D+04 0.12175421D+01  1  2 11  1  5  1        1 0.149370572815D+04
0.295170476568D-05 0.000000000000D+00 0.000000000000D+00 0.782510906294D+00 0.000000000000D+00  5 21 -1 -13 13 -1 2 0.23890843D-02 0.21382965D-01 0.20819226D+04 0.83486667D+04 0.83486667D+04 0.12175421D+01  1  2 12  3  5  1        1 0.638070209293D+00
0.815276069967D-03 0.000000000000D+00 0.000000000000D+00 0.782510906294D+00 0.683463769092D-02  5 21 -1 -13 13 -1 2 0.23413423D-02 0.21818982D-01 0.20819226D+04 0.83486667D+04 0.83486667D+04 0.12175421D+01  1  2 11  3  5  1        1 0.176146852335D+03
  </mgrwgt>
  </event>
  <event npLO=' -1 ' npNLO=' 0 '>
  5     66 0.13120323E+02 0.59231022E+02 0.75467711E-02 0.11720903E+00
        5 -1    0    0  501    0 0.00000000E+00 0.00000000E+00 0.18049541E+02 0.18049541E+02 0.00000000E+00 0.0000E+00 0.9000E+01
       -5 -1    0    0    0  501 0.00000000E+00 0.00000000E+00 -.10459829E+03 0.10459829E+03 0.00000000E+00 0.0000E+00 0.9000E+01
       23  2    1    2    0    0 0.00000000E+00 0.00000000E+00 -.86548752E+02 0.12264783E+03 0.86901120E+02 0.0000E+00 0.0000E+00
      -11  1    3    3    0    0 0.14351311E+02 0.40667094E+02 -.35782448E+02 0.56037097E+02 0.00000000E+00 0.0000E+00 0.9000E+01
       11  1    3    3    0    0 -.14351311E+02 -.40667094E+02 -.50766304E+02 0.66610737E+02 0.00000000E+00 0.0000E+00 0.9000E+01
#aMCatNLO 1  0  0  1  2 0.56834370D+02 0.00000000D+00  -5  5  0 0.00000000D+00 0.00000000D+00 0.00000000D+00 0.00000000D+00 0.00000000D+00
  <mgrwgt>
 0.5826162717D+02    5    2    0
 0.434505599220377D+02 0.000000000000000D+00 0.000000000000000D+00 0.434505599220377D+02
 0.434505599220377D+02 0.000000000000000D+00 0.000000000000000D+00 -.434505599220377D+02
 0.434505599220377D+02 0.143513111763678D+02 0.406670936183019D+02 0.530834453459051D+01
 0.434505599220377D+02 -.143513111763678D+02 -.406670936183019D+02 -.530834453459051D+01
 0.000000000000000D+00 -.000000000000000D+00 -.000000000000000D+00 -.000000000000000D+00
 0.661179826773166D+02 0.000000000000000D+00 0.000000000000000D+00 0.661179826773166D+02
 0.686041773280084D+02 0.000000000000000D+00 0.000000000000000D+00 -.686041773280084D+02
 0.627072270374243D+02 0.339629132698307D+02 0.524455748681538D+02 0.530834453459051D+01
 0.326582416493826D+02 -.290962190390953D+00 -.322226250782787D+02 -.530834453459051D+01
 0.393566913185181D+02 -.336719510794397D+02 -.202229497898751D+02 -.248619465069188D+01
0.291640813996D-01 0.000000000000D+00 0.000000000000D+00 0.530228243436D-01 0.000000000000D+00  5 5 -5 -11 11 21 0 0.27768524D-02 0.16092045D-01 0.18597726D+04 0.75518046D+04 0.75518046D+04 0.12221826D+01  1  2  2  1  5  1        5 0.506632896058D+02
-.162011537270D-02 0.000000000000D+00 -.111997751653D-03 0.530228243436D-01 0.000000000000D+00  5 5 -5 -11 11 21 2 0.27768524D-02 0.16092045D-01 0.18597726D+04 0.75518046D+04 0.75518046D+04 0.12221826D+01  1  2  3  1  5  1        5 -.461126135626D+01
0.141775835877D-02 0.000000000000D+00 0.000000000000D+00 0.530228243436D-01 0.000000000000D+00  5 5 -5 -11 11 21 2 0.27768524D-02 0.16092045D-01 0.18597726D+04 0.75518046D+04 0.75518046D+04 0.12221826D+01  1  2 15  1  5  1        5 0.367891293992D+01
0.297451543510D-02 0.000000000000D+00 0.000000000000D+00 0.530228243436D-01 0.000000000000D+00  5 5 -5 -11 11 21 2 0.66716338D-02 0.16092045D-01 0.44879390D+04 0.90945726D+04 0.90945726D+04 0.12136277D+01  1  2 12  1  5  1        5 0.196032934316D+01
0.285304458745D-03 0.000000000000D+00 0.000000000000D+00 0.530228243436D-01 0.000000000000D+00  5 21 -5 -11 11 -5 2 0.66716338D-02 0.16092045D-01 0.44879390D+04 0.90945726D+04 0.90945726D+04 0.12136277D+01  1  2 12  3  5  1        5 0.657035663923D+01
  </mgrwgt>
  </event>
  <event npLO=' -1 ' npNLO=' 0 '>
  5     66 0.13120323E+02 0.91034012E+02 0.75467711E-02 0.11001278E+00
        1 -1    0    0  501    0 0.00000000E+00 0.00000000E+00 0.78364929E+02 0.78364929E+02 0.00000000E+00 0.0000E+00 0.9000E+01
       -1 -1    0    0    0  501 0.00000000E+00 0.00000000E+00 -.26437819E+02 0.26437819E+02 0.00000000E+00 0.0000E+00 0.9000E+01
       23  2    1    2    0    0 0.00000000E+00 0.00000000E+00 0.51927110E+02 0.10480275E+03 0.91034012E+02 0.0000E+00 0.0000E+00
      -11  1    3    3    0    0 -.24880713E+02 -.15190154E+02 -.14280883E+02 0.32461273E+02 0.00000000E+00 0.0000E+00 0.9000E+01
       11  1    3    3    0    0 0.24880713E+02 0.15190154E+02 0.66207993E+02 0.72341475E+02 0.00000000E+00 0.0000E+00 0.9000E+01
#aMCatNLO 1  0  0  2  2 0.17724667D+03 0.00000000D+00  -5  5  0 0.00000000D+00 0.00000000D+00 0.00000000D+00 0.00000000D+00 0.00000000D+00
  <mgrwgt>
 0.3319025671D+03    3    2    0
 0.455170057769902D+02 0.000000000000000D+00 0.000000000000000D+00 0.455170057769902D+02
 0.455170057769902D+02 0.000000000000000D+00 0.000000000000000D+00 -.455170057769902D+02
 0.455170057769902D+02 -.248807128585394D+02 -.151901540489585D+02 -.349572190330178D+02
 0.455170057769902D+02 0.248807128585394D+02 0.151901540489585D+02 0.349572190330178D+02
 0.000000000000000D+00 0.000000000000000D+00 0.000000000000000D+00 0.000000000000000D+00
 0.148660880019847D+03 0.000000000000000D+00 0.000000000000000D+00 0.148660880019847D+03
 0.118835161496208D+03 0.000000000000000D+00 0.000000000000000D+00 -.118835161496208D+03
 0.975571733000991D+02 -.349545243088171D+02 -.841045547525668D+02 -.349572190330178D+02
 0.500183750210134D+02 0.181540944065053D+02 -.308262799166563D+02 0.349572190330178D+02
 0.119920493194942D+03 0.168004299023118D+02 0.114930834669223D+03 0.298257185236394D+02
0.295032451911D-01 0.000000000000D+00 0.000000000000D+00 0.153804518788D+01 0.000000000000D+00  5 1 -1 -11 11 21 0 0.12056143D-01 0.40673568D-02 0.84979065D+03 0.82871913D+04 0.82871913D+04 0.12178820D+01  1  2  2  2  5  2       -1 0.340031442496D+03
-.124338234656D-02 0.000000000000D+00 -.113300229917D-03 0.153804518788D+01 0.000000000000D+00  5 1 -1 -11 11 21 2 0.12056143D-01 0.40673568D-02 0.84979065D+03 0.82871913D+04 0.82871913D+04 0.12178820D+01  1  2  3  2  5  2       -1 -.256662374550D+02
0.102589881836D-02 0.000000000000D+00 0.000000000000D+00 0.153804518788D+01 0.000000000000D+00  5 1 -1 -11 11 21 2 0.12056143D-01 0.40673568D-02 0.84979065D+03 0.82871913D+04 0.82871913D+04 0.12178820D+01  1  2 15  2  5  2       -1 0.175373620812D+02
  </mgrwgt>
  </event>
  <event npLO=' -1 ' npNLO=' 0 '>
  5     66 0.13120323E+02 0.87321247E+02 0.75467711E-02 0.11473685E+00
        1 -1    0    0  501    0 0.00000000E+00 0.00000000E+00 0.69457493E+01 0.69457493E+01 0.00000000E+00 0.0000E+00 0.9000E+01
       -1 -1    0    0    0  501 0.00000000E+00 0.00000000E+00 -.27444844E+03 0.27444844E+03 0.00000000E+00 0.0000E+00 0.9000E+01
       23  2    1    2    0    0 0.00000000E+00 0.00000000E+00 -.26750269E+03 0.28139419E+03 0.87321247E+02 0.0000E+00 0.0000E+00
      -11  1    3    3    0    0 -.31008818E+02 0.36603421E+00 -.34711011E+02 0.46546054E+02 0.00000000E+00 0.0000E+00 0.9000E+01
       11  1    3    3    0    0 0.31008818E+02 -.36603421E+00 -.23279168E+03 0.23484813E+03 0.00000000E+00 0.0000E+00 0.9000E+01
#aMCatNLO 1  0  0  2  2 0.24475416D+03 0.00000000D+00  -5  5  0 0.00000000D+00 0.00000000D+00 0.00000000D+00 0.00000000D+00 0.00000000D+00
  <mgrwgt>
 0.3666557672D+03    3    2    0
 0.436606233017748D+02 0.000000000000000D+00 0.000000000000000D+00 0.436606233017748D+02
 0.436606233017748D+02 0.000000000000000D+00 0.000000000000000D+00 -.436606233017748D+02
 0.436606233017748D+02 -.310088183717136D+02 0.366034210899697D+00 0.307338450123965D+02
 0.436606233017748D+02 0.310088183717136D+02 -.366034210899697D+00 -.307338450123965D+02
 0.000000000000000D+00 -.000000000000000D+00 0.000000000000000D+00 0.000000000000000D+00
 0.335618591744601D+03 0.000000000000000D+00 0.000000000000000D+00 0.335618591744601D+03
 0.590577634064664D+02 0.000000000000000D+00 0.000000000000000D+00 -.590577634064664D+02
 0.474116470988734D+02 -.214328211012806D+02 -.290504600828042D+02 0.307338450123965D+02
 0.626893667044350D+02 0.421912255910552D+02 -.347172572603568D+02 -.307338450123965D+02
 0.284575341347759D+03 -.207584044897746D+02 0.637677173431611D+02 0.276560828338134D+03
0.425843823711D-01 0.000000000000D+00 0.000000000000D+00 0.888390094782D-01 0.000000000000D+00  5 1 -1 -11 11 21 0 0.10685768D-02 0.42222836D-01 0.96168080D+03 0.76250001D+04 0.76250001D+04 0.12217339D+01  1  2  2  2  5  2       -1 0.370201816683D+03
-.202914869255D-02 0.000000000000D+00 -.163535241031D-03 0.888390094782D-01 0.000000000000D+00  5 1 -1 -11 11 21 2 0.10685768D-02 0.42222836D-01 0.96168080D+03 0.76250001D+04 0.76250001D+04 0.12217339D+01  1  2  3  2  5  2       -1 -.307239576511D+02
0.209447207167D-02 0.000000000000D+00 0.000000000000D+00 0.888390094782D-01 0.000000000000D+00  5 1 -1 -11 11 21 2 0.10685768D-02 0.42222836D-01 0.96168080D+03 0.76250001D+04 0.76250001D+04 0.12217339D+01  1  2 15  2  5  2       -1 0.271779081861D+02
  </mgrwgt>
  </event>
  <event npLO=' -1 ' npNLO=' 0 '>
  5     66 0.13120323E+02 0.90976502E+02 0.75467711E-02 0.11735942E+00
        3 -1    0    0  501    0 0.00000000E+00 0.00000000E+00 0.40254834E+02 0.40254834E+02 0.00000000E+00 0.0000E+00 0.9000E+01
       -3 -1    0    0    0  501 0.00000000E+00 0.00000000E+00 -.51402050E+02 0.51402050E+02 0.00000000E+00 0.0000E+00 0.9000E+01
       23  2    1    2    0    0 0.00000000E+00 0.00000000E+00 -.11147216E+02 0.91656884E+02 0.90976502E+02 0.0000E+00 0.0000E+00
      -11  1    3    3    0    0 0.20821422E+02 -.39526113E+02 0.30540690E+01 0.44779153E+02 0.00000000E+00 0.0000E+00 0.9000E+01
       11  1    3    3    0    0 -.20821422E+02 0.39526113E+02 -.14201285E+02 0.46877731E+02 0.00000000E+00 0.0000E+00 0.9000E+01
#aMCatNLO 1  0  0  1  1 0.93866811D+02 0.00000000D+00  -5  5  0 0.00000000D+00 0.00000000D+00 0.00000000D+00 0.00000000D+00 0.00000000D+00
  <mgrwgt>
 0.1825228500D+03    3    2    0
 0.454882511758850D+02 0.000000000000000D+00 0.000000000000000D+00 0.454882511758850D+02
 0.454882511758850D+02 0.000000000000000D+00 0.000000000000000D+00 -.454882511758850D+02
 0.454882511758850D+02 0.208214217268888D+02 -.395261127951154D+02 0.856363238464036D+01
 0.454882511758850D+02 -.208214217268888D+02 0.395261127951154D+02 -.856363238464036D+01
 0.000000000000000D+00 -.000000000000000D+00 -.000000000000000D+00 -.000000000000000D+00
 0.496799116667800D+02 0.000000000000000D+00 0.000000000000000D+00 0.496799116667800D+02
 0.116340805700545D+03 0.000000000000000D+00 0.000000000000000D+00 -.116340805700545D+03
 0.508958245966747D+02 0.339528684446758D+02 -.369357805675574D+02 0.856363238464036D+01
 0.436584222461387D+02 -.867600473008514D+01 0.419219390692560D+02 -.856363238464036D+01
 0.714664705245115D+02 -.252768637145907D+02 -.498615850169864D+01 -.666608940337647D+02
0.259811774481D-01 0.000000000000D+00 0.000000000000D+00 0.764133427740D+00 0.000000000000D+00  5 3 -3 -11 11 21 0 0.61930514D-02 0.79080077D-02 0.19958452D+04 0.82767240D+04 0.82767240D+04 0.12179402D+01  1  2  2  1  5  1        3 0.185908817749D+03
-.144282744289D-02 0.000000000000D+00 -.997745624019D-04 0.764133427740D+00 0.000000000000D+00  5 3 -3 -11 11 21 2 0.61930514D-02 0.79080077D-02 0.19958452D+04 0.82767240D+04 0.82767240D+04 0.12179402D+01  1  2  3  1  5  1        3 -.168210233026D+02
0.126574545242D-02 0.000000000000D+00 0.000000000000D+00 0.764133427740D+00 0.000000000000D+00  5 3 -3 -11 11 21 2 0.61930514D-02 0.79080077D-02 0.19958452D+04 0.82767240D+04 0.82767240D+04 0.12179402D+01  1  2 15  1  5  1        3 0.134350555777D+02
  </mgrwgt>
  </event>
  <event npLO=' -1 ' npNLO=' 0 '>
  5     66 0.13120323E+02 0.73418299E+02 0.75467711E-02 0.11702974E+00
        5 -1    0    0  501    0 0.00000000E+00 0.00000000E+00 0.15169822E+03 0.15169822E+03 0.00000000E+00 0.0000E+00 0.9000E+01
       -5 -1    0    0    0  501 0.00000000E+00 0.00000000E+00 -.14387112E+02 0.14387112E+02 0.00000000E+00 0.0000E+00 0.9000E+01
       23  2    1    2    0    0 0.00000000E+00 0.00000000E+00 0.13731111E+03 0.16608533E+03 0.93434455E+02 0.0000E+00 0.0000E+00
      -13  1    3    3    0    0 -.42382875E+02 0.16296852E+02 0.88176679E+02 0.99181763E+02 0.00000000E+00 0.0000E+00 0.9000E+01
       13  1    3    3    0    0 0.42382875E+02 -.16296852E+02 0.49134429E+02 0.66903570E+02 0.00000000E+00 0.0000E+00 0.9000E+01
#aMCatNLO 1  0  0  2  1 0.30017086D+02 0.00000000D+00  -5  5  0 0.00000000D+00 0.00000000D+00 0.00000000D+00 0.00000000D+00 0.00000000D+00
  <mgrwgt>
 0.3193157196D+02    9    2    0
 0.467172275640279D+02 0.000000000000000D+00 0.000000000000000D+00 0.467172275640279D+02
 0.467172275640279D+02 0.000000000000000D+00 0.000000000000000D+00 -.467172275640279D+02
 0.467172275640279D+02 -.423828749326785D+02 0.162968524998928D+02 0.109819789795298D+02
 0.467172275640279D+02 0.423828749326785D+02 -.162968524998928D+02 -.109819789795298D+02
 0.000000000000000D+00 -.000000000000000D+00 0.000000000000000D+00 -.000000000000000D+00
 0.569964821081659D+02 0.000000000000000D+00 0.000000000000000D+00 0.569964821081659D+02
 0.638189343892507D+02 0.000000000000000D+00 0.000000000000000D+00 -.638189343892507D+02
 0.372532501721185D+02 -.320098089203888D+02 0.155747526131174D+02 0.109819789795298D+02
 0.590913103496383D+02 0.554536466852352D+02 -.172067476833811D+02 -.109819789795298D+02
 0.244708559756597D+02 -.234438377648464D+02 0.163199507026369D+01 -.682245228108478D+01
0.237108233873D-01 0.000000000000D+00 0.000000000000D+00 0.191293657885D+00 0.000000000000D+00  5 5 -5 -13 13 21 0 0.23338188D-01 0.22134019D-02 0.20618955D+04 0.87299974D+04 0.87299974D+04 0.12154941D+01  1  2  2  2  5  2       -5 0.303105148253D+02
-.131597412661D-02 0.000000000000D+00 -.910558050105D-04 0.191293657885D+00 0.000000000000D+00  5 5 -5 -13 13 21 2 0.23338188D-01 0.22134019D-02 0.20618955D+04 0.87299974D+04 0.87299974D+04 0.12154941D+01  1  2  3  2  5  2       -5 -.273360069449D+01
0.117960787149D-02 0.000000000000D+00 0.000000000000D+00 0.191293657885D+00 0.000000000000D+00  5 5 -5 -13 13 21 2 0.23338188D-01 0.22134019D-02 0.20618955D+04 0.87299974D+04 0.87299974D+04 0.12154941D+01  1  2 15  2  5  2       -5 0.222787113994D+01
0.962857354276D-02 0.000000000000D+00 0.000000000000D+00 0.191293657885D+00 0.000000000000D+00  5 5 -5 -13 13 21 2 0.23338188D-01 0.36889584D-02 0.34316277D+04 0.92822743D+04 0.92822743D+04 0.12126991D+01  1  2 12  2  5  2       -5 0.829165191993D+01
-.101489267057D-01 0.000000000000D+00 0.000000000000D+00 0.191293657885D+00 0.000000000000D+00  5 5 -5 -13 13 21 2 0.23338188D-01 0.22134019D-02 0.20618955D+04 0.87299974D+04 0.87299974D+04 0.12154941D+01  1  2  4  2  5  2       -5 -.191678111476D+02
-.143470598396D-01 0.000000000000D+00 -.819141702965D-02 0.191293657885D+00 0.000000000000D+00  5 5 -5 -13 13 21 2 0.23338188D-01 0.36843654D-02 0.20618955D+04 0.87299974D+04 0.87299974D+04 0.12154941D+01  1  2  5  2  5  2       -5 -.223800413943D+02
0.171988986876D-01 0.000000000000D+00 0.723199648135D-02 0.191293657885D+00 0.000000000000D+00  5 5 -5 -13 13 21 2 0.23338188D-01 0.22134019D-02 0.20618955D+04 0.87299974D+04 0.87299974D+04 0.12154941D+01  1  2  6  2  5  2       -5 0.521942333037D+02
0.552216499130D-03 0.000000000000D+00 0.000000000000D+00 0.191293657885D+00 0.000000000000D+00  5 5 21 -13 13 5 2 0.23338188D-01 0.36889584D-02 0.34316277D+04 0.92822743D+04 0.92822743D+04 0.12126991D+01  1  2 12  4  5  2       -5 0.164054230131D+02
-.443858133431D-03 0.000000000000D+00 -.468875590387D-03 0.191293657885D+00 0.000000000000D+00  5 5 21 -13 13 5 2 0.23338188D-01 0.36843654D-02 0.20618955D+04 0.87299974D+04 0.87299974D+04 0.12154941D+01  1  2  5  4  5  2       -5 -.332166690080D+02
  </mgrwgt>
  </event>
  <event npLO=' -1 ' npNLO=' 0 '>
  5     66 0.13120323E+02 0.60953058E+02 0.75467711E-02 0.11745196E+00
        1 -1    0    0  501    0 0.00000000E+00 0.00000000E+00 0.26790373E+03 0.26790373E+03 0.00000000E+00 0.0000E+00 0.9000E+01
       -1 -1    0    0    0  501 0.00000000E+00 0.00000000E+00 -.79104837E+01 0.79104837E+01 0.00000000E+00 0.0000E+00 0.9000E+01
       23  2    1    2    0    0 0.00000000E+00 0.00000000E+00 0.25999324E+03 0.27581421E+03 0.92070583E+02 0.0000E+00 0.0000E+00
      -11  1    3    3    0    0 -.15588560E+02 -.40304924E+02 0.17752876E+03 0.18271275E+03 0.00000000E+00 0.0000E+00 0.9000E+01
       11  1    3    3    0    0 0.15588560E+02 0.40304924E+02 0.82464484E+02 0.93101457E+02 0.00000000E+00 0.0000E+00 0.9000E+01
#aMCatNLO 1  0  0  2  1 0.30987048D+02 0.00000000D+00  -5  5  0 0.00000000D+00 0.00000000D+00 0.00000000D+00 0.00000000D+00 0.00000000D+00
  <mgrwgt>
 0.3501828001D+03    6    2    0
 0.460352914419128D+02 0.000000000000000D+00 0.000000000000000D+00 0.460352914419128D+02
 0.460352914419128D+02 0.000000000000000D+00 0.000000000000000D+00 -.460352914419128D+02
 0.460352914419128D+02 -.155885595080686D+02 -.403049241984327D+02 0.158668823643416D+02
 0.460352914419128D+02 0.155885595080686D+02 0.403049241984327D+02 -.158668823643416D+02
 0.000000000000000D+00 0.000000000000000D+00 -.000000000000000D+00 0.000000000000000D+00
 0.597727192576568D+02 0.000000000000000D+00 0.000000000000000D+00 0.597727192576568D+02
 0.542929599062487D+02 0.000000000000000D+00 0.000000000000000D+00 -.542929599062487D+02
 0.443771726291258D+02 -.229307920439437D+02 -.345217941426685D+02 0.158668823643416D+02
 0.496824243961430D+02 0.781549708015336D+01 0.464273986273701D+02 -.158668823643416D+02
 0.200060821386367D+02 0.151152949637904D+02 -.119056044847016D+02 0.547975935140810D+01
0.248489209780D-01 0.000000000000D+00 0.000000000000D+00 0.542234370282D+00 0.000000000000D+00  5 1 -1 -11 11 21 0 0.41215958D-01 0.12169975D-02 0.18674901D+04 0.84769922D+04 0.84769922D+04 0.12168414D+01  1  2  2  2  5  2       -1 0.331724939984D+03
-.137378434946D-02 0.000000000000D+00 -.954263994265D-04 0.542234370282D+00 0.000000000000D+00  5 1 -1 -11 11 21 2 0.41215958D-01 0.12169975D-02 0.18674901D+04 0.84769922D+04 0.84769922D+04 0.12168414D+01  1  2  3  2  5  2       -1 -.300089525348D+02
0.127235496527D-02 0.000000000000D+00 0.000000000000D+00 0.542234370282D+00 0.000000000000D+00  5 1 -1 -11 11 21 2 0.41215958D-01 0.12169975D-02 0.18674901D+04 0.84769922D+04 0.84769922D+04 0.12168414D+01  1  2 15  2  5  2       -1 0.251505124179D+02
0.692918962000D-02 0.000000000000D+00 0.000000000000D+00 0.542234370282D+00 0.000000000000D+00  5 1 -1 -11 11 21 2 0.41215958D-01 0.18636074D-02 0.29033375D+04 0.88472078D+04 0.88472078D+04 0.12148847D+01  1  2 12  2  5  2       -1 0.757094218270D+02
-.610852192697D-02 0.000000000000D+00 0.000000000000D+00 0.542234370282D+00 0.000000000000D+00  5 1 -1 -11 11 21 2 0.41215958D-01 0.12169975D-02 0.18674901D+04 0.84769922D+04 0.84769922D+04 0.12168414D+01  1  2  4  2  5  2       -1 -.120746537541D+03
0.345623531533D-03 0.000000000000D+00 0.000000000000D+00 0.542234370282D+00 0.000000000000D+00  5 1 21 -11 11 1 2 0.41215958D-01 0.18636074D-02 0.29033375D+04 0.88472078D+04 0.88472078D+04 0.12148847D+01  1  2 12  4  5  2       -1 0.683534159398D+02
  </mgrwgt>
  </event>
  <event npLO=' -1 ' npNLO=' 0 '>
  5     66 0.13120323E+02 0.87111333E+02 0.75467711E-02 0.11201922E+00
        3 -1    0    0  501    0 0.00000000E+00 0.00000000E+00 0.62980169E+01 0.62980169E+01 0.00000000E+00 0.0000E+00 0.9000E+01
       -3 -1    0    0    0  501 0.00000000E+00 0.00000000E+00 -.30122118E+03 0.30122118E+03 0.00000000E+00 0.0000E+00 0.9000E+01
       23  2    1    2    0    0 0.00000000E+00 0.00000000E+00 -.29492316E+03 0.30751920E+03 0.87111333E+02 0.0000E+00 0.0000E+00
      -11  1    3    3    0    0 -.25539421E+02 -.15028425E+02 -.34772843E+02 0.45686608E+02 0.00000000E+00 0.0000E+00 0.9000E+01
       11  1    3    3    0    0 0.25539421E+02 0.15028425E+02 -.26015032E+03 0.26183259E+03 0.00000000E+00 0.0000E+00 0.9000E+01
#aMCatNLO 1  0  0  2  2 0.11628633D+03 0.00000000D+00  -5  5  0 0.00000000D+00 0.00000000D+00 0.00000000D+00 0.00000000D+00 0.00000000D+00
  <mgrwgt>
 0.2072973732D+03    5    2    0
 0.435556665172563D+02 0.000000000000000D+00 0.000000000000000D+00 0.435556665172563D+02
 0.435556665172563D+02 0.000000000000000D+00 0.000000000000000D+00 -.435556665172563D+02
 0.435556665172563D+02 -.255394205356627D+02 -.150284247664254D+02 0.319214744882642D+02
 0.435556665172563D+02 0.255394205356627D+02 0.150284247664254D+02 -.319214744882642D+02
 0.000000000000000D+00 -.000000000000000D+00 -.000000000000000D+00 -.000000000000000D+00
 0.891855731074976D+02 0.000000000000000D+00 0.000000000000000D+00 0.891855731074976D+02
 0.160795183453161D+03 0.000000000000000D+00 0.000000000000000D+00 -.160795183453161D+03
 0.400934026526837D+02 -.135409315874911D+02 0.201281786187476D+02 0.319214744882642D+02
 0.898182505350503D+02 0.446703622855984D+02 0.710837275960226D+02 -.319214744882642D+02
 0.120069103372924D+03 -.311294306981074D+02 -.912119062147702D+02 -.716096103456629D+02
0.459941771678D-01 0.000000000000D+00 0.000000000000D+00 0.827697913712D-01 0.000000000000D+00  5 3 -3 -11 11 21 0 0.96892568D-03 0.46341720D-01 0.87811555D+03 0.75883843D+04 0.75883843D+04 0.12219578D+01  1  2  2  2  5  2       -3 0.211674045630D+03
-.209436755821D-02 0.000000000000D+00 -.176629750869D-03 0.827697913712D-01 0.000000000000D+00  5 3 -3 -11 11 21 2 0.96892568D-03 0.46341720D-01 0.87811555D+03 0.75883843D+04 0.75883843D+04 0.12219578D+01  1  2  3  2  5  2       -3 -.170099341424D+02
0.214021767367D-02 0.000000000000D+00 0.000000000000D+00 0.827697913712D-01 0.000000000000D+00  5 3 -3 -11 11 21 2 0.96892568D-03 0.46341720D-01 0.87811555D+03 0.75883843D+04 0.75883843D+04 0.12219578D+01  1  2 15  2  5  2       -3 0.147073727288D+02
0.382790857549D-01 0.000000000000D+00 -.196361964826D-01 0.827697913712D-01 0.000000000000D+00  5 3 -3 -11 11 21 2 0.96892568D-03 0.27483905D+00 0.87811555D+03 0.75883843D+04 0.75883843D+04 0.12219578D+01  1  2  5  2  5  2       -3 -.230895987192D+00
0.714071037906D-02 0.000000000000D+00 -.428378398455D-02 0.827697913712D-01 0.000000000000D+00  5 3 21 -11 11 3 2 0.96892568D-03 0.27483905D+00 0.87811555D+03 0.75883843D+04 0.75883843D+04 0.12219578D+01  1  2  5  4  5  2       -3 -.184321505852D+01
  </mgrwgt>
  </event>
  <event npLO=' -1 ' npNLO=' 0 '>
  6     66 -.13120323E+02 0.91262510E+02 0.75467711E-02 0.11798097E+00
        3 -1    0    0  501    0 0.00000000E+00 0.00000000E+00 0.23718152E+03 0.23718152E+03 0.00000000E+00 0.0000E+00 0.9000E+01
       -3 -1    0    0    0  502 0.00000000E+00 0.00000000E+00 -.96093669E+01 0.96093669E+01 0.00000000E+00 0.0000E+00 0.9000E+01
       23  2    1    2    0    0 0.18404766E+01 -.16544622E+01 0.20920791E+03 0.22826064E+03 0.91262510E+02 0.0000E+00 0.0000E+00
      -11  1    3    3    0    0 0.37276586E+02 -.24960511E+02 0.14077203E+03 0.14774754E+03 0.00000000E+00 0.0000E+00 0.9000E+01
       11  1    3    3    0    0 -.35436110E+02 0.23306048E+02 0.68435879E+02 0.80513100E+02 0.00000000E+00 0.0000E+00 0.9000E+01
       21  1    1    2  501  502 -.18404766E+01 0.16544622E+01 0.18364245E+02 0.18530248E+02 0.00000000E+00 0.0000E+00 0.9000E+01
#aMCatNLO 2  0  0  2  1 0.78277404D+01 0.00000000D+00  -5  5  0 0.00000000D+00 0.00000000D+00 0.00000000D+00 0.00000000D+00 0.00000000D+00
  <mgrwgt>
 -.7551706424D+02    3    2    0
 0.456312550314029D+02 0.000000000000000D+00 0.000000000000000D+00 0.456312550314029D+02
 0.456312550314029D+02 0.000000000000000D+00 0.000000000000000D+00 -.456312550314029D+02
 0.456312550314029D+02 0.363445499003336D+02 -.241226737459198D+02 0.133933468420335D+02
 0.456312550314029D+02 -.363445499003336D+02 0.241226737459198D+02 -.133933468420335D+02
 0.000000000000000D+00 -.000000000000000D+00 0.000000000000000D+00 0.000000000000000D+00
 0.494978167684161D+02 0.000000000000000D+00 0.000000000000000D+00 0.494978167684161D+02
 0.460457525908820D+02 0.000000000000000D+00 0.000000000000000D+00 -.460457525908820D+02
 0.468182946437948D+02 0.372765863223204D+02 -.249605105291693D+02 0.133933468420335D+02
 0.444777641008179D+02 -.354361096961811D+02 0.233060483432353D+02 -.133933468420335D+02
 0.424751061468542D+01 -.184047662613938D+01 0.165446218593401D+01 0.345206417753413D+01
-.174766446125D-01 0.000000000000D+00 0.000000000000D+00 0.797789827283D+00 0.000000000000D+00  5 3 -3 -11 11 21 2 0.33639061D-01 0.16036332D-02 0.20137567D+04 0.83349703D+04 0.83349703D+04 0.12176176D+01  1  2 13  2  5  2       -3 -.114598823503D+03
-.153599503557D-03 0.000000000000D+00 0.000000000000D+00 0.797789827283D+00 0.000000000000D+00  5 3 -3 -11 11 21 2 0.33639061D-01 0.14650561D-02 0.19028297D+04 0.83288457D+04 0.83288457D+04 0.12176514D+01  1  2  8  2  5  2       -3 -.114428093412D+01
0.639164867412D-02 0.000000000000D+00 0.000000000000D+00 0.797789827283D+00 0.103378555062D+01  5 3 -3 -11 11 21 2 0.36489464D-01 0.14783641D-02 0.20137567D+04 0.83349703D+04 0.83349703D+04 0.12176176D+01  1  2  1  2  5  2       -3 0.402260401942D+02
  </mgrwgt>
  </event>
  <event npLO=' -1 ' npNLO=' 0 '>
  6     66 0.13120323E+02 0.91467553E+02 0.75467711E-02 0.11770274E+00
        3 -1    0    0  501    0 0.00000000E+00 0.00000000E+00 0.95283767E+02 0.95283767E+02 0.00000000E+00 0.0000E+00 0.9000E+01
       21 -1    0    0  502  501 0.00000000E+00 0.00000000E+00 -.31361224E+02 0.31361224E+02 0.00000000E+00 0.0000E+00 0.9000E+01
       23  2    1    2    0    0 -.13560421E+02 0.70543339E+01 0.61223896E+02 0.11112303E+03 0.91467553E+02 0.0000E+00 0.0000E+00
      -13  1    3    3    0    0 -.44753428E+02 -.90373000E+01 0.65097233E+01 0.46118528E+02 0.00000000E+00 0.0000E+00 0.9000E+01
       13  1    3    3    0    0 0.31193007E+02 0.16091634E+02 0.54714173E+02 0.65004500E+02 0.00000000E+00 0.0000E+00 0.9000E+01
        3  1    1    2  502    0 0.13560421E+02 -.70543339E+01 0.26986468E+01 0.15521964E+02 0.00000000E+00 0.0000E+00 0.9000E+01
#aMCatNLO 2  0  0  2  1 0.18518056D+02 0.00000000D+00  -5  5  0 0.00000000D+00 0.00000000D+00 0.00000000D+00 0.00000000D+00 0.00000000D+00
  <mgrwgt>
 0.2393394705D+02    2    2    0
 0.457337764975455D+02 0.000000000000000D+00 0.000000000000000D+00 0.457337764975455D+02
 0.457337764975455D+02 0.000000000000000D+00 0.000000000000000D+00 -.457337764975455D+02
 0.457337764975455D+02 -.376348089059974D+02 -.127405120659942D+02 -.226468281141700D+02
 0.457337764975455D+02 0.376348089059974D+02 0.127405120659942D+02 0.226468281141700D+02
 0.000000000000000D+00 0.000000000000000D+00 -.000000000000000D+00 -.000000000000000D+00
 0.512700388419252D+02 0.000000000000000D+00 0.000000000000000D+00 0.512700388419252D+02
 0.582838567547800D+02 0.000000000000000D+00 0.000000000000000D+00 -.582838567547800D+02
 0.509648990800731D+02 -.447534280654724D+02 -.903729998383734D+01 -.226468281141700D+02
 0.417710804984566D+02 0.311930065975588D+02 0.160916339064882D+02 0.226468281141700D+02
 0.168179160181753D+02 0.135604214679137D+02 -.705433392265082D+01 -.701381791285480D+01
-.743526463690D-03 0.000000000000D+00 0.000000000000D+00 0.116069934572D+01 0.000000000000D+00  5 3 21 -13 13 3 2 0.13076123D-01 0.54088661D-02 0.23059886D+04 0.85999619D+04 0.85999619D+04 0.12161810D+01  1  2 13  4  5  2       -3 -.768998710459D+02
0.980215795460D-03 0.000000000000D+00 0.000000000000D+00 0.116069934572D+01 0.161884542763D-02  5 3 21 -13 13 3 2 0.14659041D-01 0.48248037D-02 0.23059886D+04 0.85999619D+04 0.85999619D+04 0.12161810D+01  1  2  1  4  5  2       -3 0.100833818093D+03
  </mgrwgt>
  </event>
  <event npLO=' -1 ' npNLO=' 0 '>
  5     66 0.13120323E+02 0.74202895E+02 0.75467711E-02 0.11734367E+00
        1 -1    0    0  501    0 0.00000000E+00 0.00000000E+00 0.11989451E+02 0.11989451E+02 0.00000000E+00 0.0000E+00 0.9000E+01
       -1 -1    0    0    0  501 0.00000000E+00 0.00000000E+00 -.17437070E+03 0.17437070E+03 0.00000000E+00 0.0000E+00 0.9000E+01
       23  2    1    2    0    0 0.00000000E+00 0.00000000E+00 -.16238125E+03 0.18636016E+03 0.91446357E+02 0.0000E+00 0.0000E+00
      -13  1    3    3    0    0 -.16210039E+02 0.37492216E+02 -.12306364E+03 0.12966530E+03 0.00000000E+00 0.0000E+00 0.9000E+01
       13  1    3    3    0    0 0.16210039E+02 -.37492216E+02 -.39317618E+02 0.56694856E+02 0.00000000E+00 0.0000E+00 0.9000E+01
#aMCatNLO 1  0  0  1  2 0.27118280D+02 0.00000000D+00  -5  5  0 0.00000000D+00 0.00000000D+00 0.00000000D+00 0.00000000D+00 0.00000000D+00
  <mgrwgt>
 0.4085596435D+03    9    2    0
 0.457231785543931D+02 0.000000000000000D+00 0.000000000000000D+00 0.457231785543931D+02
 0.457231785543931D+02 0.000000000000000D+00 0.000000000000000D+00 -.457231785543931D+02
 0.457231785543931D+02 -.162100393594219D+02 0.374922156532507D+02 -.205469571103132D+02
 0.457231785543931D+02 0.162100393594219D+02 -.374922156532507D+02 0.205469571103132D+02
 0.000000000000000D+00 0.000000000000000D+00 0.000000000000000D+00 0.000000000000000D+00
 0.778310014946931D+02 0.000000000000000D+00 0.000000000000000D+00 0.778310014946931D+02
 0.521868911652780D+02 0.000000000000000D+00 0.000000000000000D+00 -.521868911652780D+02
 0.426792117658282D+02 -.238659018694315D+02 0.288054925043476D+02 -.205469571103132D+02
 0.519595634909746D+02 0.775047576627545D+01 -.470908581051136D+02 0.205469571103132D+02
 0.353791174031684D+02 0.161154261031560D+02 0.182853656007660D+02 0.256441103294151D+02
0.346487708087D-01 0.000000000000D+00 0.000000000000D+00 0.111730924861D+01 0.000000000000D+00  5 1 -1 -13 13 21 0 0.18445310D-02 0.26826262D-01 0.16684316D+04 0.83624362D+04 0.83624362D+04 0.12174663D+01  1  2  2  1  5  1        1 0.304015585679D+03
-.189515992210D-02 0.000000000000D+00 -.133060403136D-03 0.111730924861D+01 0.000000000000D+00  5 1 -1 -13 13 21 2 0.18445310D-02 0.26826262D-01 0.16684316D+04 0.83624362D+04 0.83624362D+04 0.12174663D+01  1  2  3  1  5  1        1 -.274365399495D+02
0.189490135834D-02 0.000000000000D+00 0.000000000000D+00 0.111730924861D+01 0.000000000000D+00  5 1 -1 -13 13 21 2 0.18445310D-02 0.26826262D-01 0.16684316D+04 0.83624362D+04 0.83624362D+04 0.12174663D+01  1  2 15  1  5  1        1 0.246438489082D+02
0.322373993236D-01 0.000000000000D+00 0.000000000000D+00 0.111730924861D+01 0.000000000000D+00  5 1 -1 -13 13 21 2 0.35836630D-02 0.26826262D-01 0.29978639D+04 0.89564978D+04 0.89564978D+04 0.12143245D+01  1  2 12  1  5  1        1 0.169890818237D+03
-.311607577548D-01 0.000000000000D+00 0.000000000000D+00 0.111730924861D+01 0.000000000000D+00  5 1 -1 -13 13 21 2 0.18445310D-02 0.26826262D-01 0.16684316D+04 0.83624362D+04 0.83624362D+04 0.12174663D+01  1  2  4  1  5  1        1 -.405256454430D+03
-.302809636592D-01 0.000000000000D+00 -.132570208458D-01 0.111730924861D+01 0.000000000000D+00  5 1 -1 -13 13 21 2 0.35780174D-02 0.26826262D-01 0.16684316D+04 0.83624362D+04 0.83624362D+04 0.12174663D+01  1  2  5  1  5  1        1 -.273025292594D+03
0.338231416505D-01 0.000000000000D+00 0.107986288606D-01 0.111730924861D+01 0.000000000000D+00  5 1 -1 -13 13 21 2 0.18445310D-02 0.26826262D-01 0.16684316D+04 0.83624362D+04 0.83624362D+04 0.12174663D+01  1  2  6  1  5  1        1 0.666251964921D+03
0.232101807389D-02 0.000000000000D+00 0.000000000000D+00 0.111730924861D+01 0.000000000000D+00  5 21 -1 -13 13 -1 2 0.35836630D-02 0.26826262D-01 0.29978639D+04 0.89564978D+04 0.89564978D+04 0.12143245D+01  1  2 12  3  5  1        1 0.187450182428D+03
-.140138004600D-02 0.000000000000D+00 -.952341046098D-03 0.111730924861D+01 0.000000000000D+00  5 21 -1 -13 13 -1 2 0.35780174D-02 0.26826262D-01 0.16684316D+04 0.83624362D+04 0.83624362D+04 0.12174663D+01  1  2  5  3  5  1        1 -.237974469725D+03
  </mgrwgt>
  </event>
  <event npLO=' -1 ' npNLO=' 0 '>
  5     66 0.13120323E+02 0.62024906E+02 0.75467711E-02 0.11626646E+00
        1 -1    0    0  501    0 0.00000000E+00 0.00000000E+00 0.23286963E+03 0.23286963E+03 0.00000000E+00 0.0000E+00 0.9000E+01
       -1 -1    0    0    0  501 0.00000000E+00 0.00000000E+00 -.10419930E+02 0.10419930E+02 0.00000000E+00 0.0000E+00 0.9000E+01
       23  2    1    2    0    0 0.00000000E+00 0.00000000E+00 0.22244970E+03 0.24328956E+03 0.98518736E+02 0.0000E+00 0.0000E+00
      -13  1    3    3    0    0 -.49342716E+01 0.26820449E+02 0.99221251E+01 0.29019512E+02 0.00000000E+00 0.0000E+00 0.9000E+01
       13  1    3    3    0    0 0.49342716E+01 -.26820449E+02 0.21252758E+03 0.21427005E+03 0.00000000E+00 0.0000E+00 0.9000E+01
#aMCatNLO 1  0  0  2  1 0.21165688D+02 0.00000000D+00  -5  5  0 0.00000000D+00 0.00000000D+00 0.00000000D+00 0.00000000D+00 0.00000000D+00
  <mgrwgt>
 0.4209514828D+03    7    2    0
 0.492593681993931D+02 0.000000000000000D+00 0.000000000000000D+00 0.492593681993931D+02
 0.492593681993931D+02 0.000000000000000D+00 0.000000000000000D+00 -.492593681993931D+02
 0.492593681993931D+02 -.493427162752014D+01 0.268204491755654D+02 -.410219675896969D+02
 0.492593681993931D+02 0.493427162752014D+01 -.268204491755654D+02 0.410219675896969D+02
 0.000000000000000D+00 0.000000000000000D+00 -.000000000000000D+00 -.000000000000000D+00
 0.518234350744707D+02 0.000000000000000D+00 0.000000000000000D+00 0.518234350744707D+02
 0.121883199737065D+03 0.000000000000000D+00 0.000000000000000D+00 -.121883199737065D+03
 0.560502241929678D+02 -.714252408125398D+01 0.375207963255115D+02 -.410219675896969D+02
 0.446124989451734D+02 0.296585853001011D+01 -.172822718524772D+02 0.410219675896969D+02
 0.730439116733944D+02 0.417666555124386D+01 -.202385244730343D+02 -.700597646625942D+02
0.417185713971D-01 0.000000000000D+00 0.000000000000D+00 0.668068468167D-01 0.000000000000D+00  5 1 -1 -13 13 21 0 0.35826097D-01 0.16030662D-02 0.74368353D+03 0.97059414D+04 0.97059414D+04 0.12106780D+01  1  2  2  2  5  2       -1 0.456853273177D+03
-.133245826346D-02 0.000000000000D+00 -.160210298917D-03 0.668068468167D-01 0.000000000000D+00  5 1 -1 -13 13 21 2 0.35826097D-01 0.16030662D-02 0.74368353D+03 0.97059414D+04 0.97059414D+04 0.12106780D+01  1  2  3  2  5  2       -1 -.279934094424D+02
0.169278547128D-02 0.000000000000D+00 0.000000000000D+00 0.668068468167D-01 0.000000000000D+00  5 1 -1 -13 13 21 2 0.35826097D-01 0.16030662D-02 0.74368353D+03 0.97059414D+04 0.97059414D+04 0.12106780D+01  1  2 15  2  5  2       -1 0.271710559552D+02
0.129362646930D+00 0.000000000000D+00 0.000000000000D+00 0.668068468167D-01 0.000000000000D+00  5 1 -1 -13 13 21 2 0.35826097D-01 0.41729562D-02 0.14590298D+04 0.10132984D+05 0.10132984D+05 0.12087379D+01  1  2 12  2  5  2       -1 0.537615919774D+03
-.104865952662D+00 0.000000000000D+00 -.123251808334D-01 0.668068468167D-01 0.000000000000D+00  5 1 -1 -13 13 21 2 0.35826097D-01 0.41626786D-02 0.74368353D+03 0.97059414D+04 0.97059414D+04 0.12106780D+01  1  2  5  2  5  2       -1 -.569898936701D+03
0.137153828180D-01 0.000000000000D+00 0.000000000000D+00 0.668068468167D-01 0.000000000000D+00  5 1 21 -13 13 1 2 0.35826097D-01 0.41729562D-02 0.14590298D+04 0.10132984D+05 0.10132984D+05 0.12087379D+01  1  2 12  4  5  2       -1 0.926985428342D+03
-.103416192244D-01 0.000000000000D+00 -.130282459662D-02 0.668068468167D-01 0.000000000000D+00  5 1 21 -13 13 1 2 0.35826097D-01 0.41626786D-02 0.74368353D+03 0.97059414D+04 0.97059414D+04 0.12106780D+01  1  2  5  4  5  2       -1 -.929781848336D+03
  </mgrwgt>
  </event>
  <event npLO=' -1 ' npNLO=' 0 '>
  6     66 -.13120323E+02 0.91354540E+02 0.75467711E-02 0.11757946E+00
        1 -1    0    0  501    0 0.00000000E+00 0.00000000E+00 0.13046060E+03 0.13046060E+03 0.00000000E+00 0.0000E+00 0.9000E+01
       21 -1    0    0  502  501 0.00000000E+00 0.00000000E+00 -.20971417E+03 0.20971417E+03 0.00000000E+00 0.0000E+00 0.9000E+01
       23  2    1    2    0    0 0.13855274E+02 0.13523205E+02 0.11320147E+03 0.14674833E+03 0.91354540E+02 0.0000E+00 0.0000E+00
      -13  1    3    3    0    0 0.47995610E+02 0.14196812E+02 0.34022256E+02 0.60519765E+02 0.00000000E+00 0.0000E+00 0.9000E+01
       13  1    3    3    0    0 -.34140336E+02 -.67360695E+00 0.79179218E+02 0.86228562E+02 0.00000000E+00 0.0000E+00 0.9000E+01
        1  1    1    2  502    0 -.13855274E+02 -.13523205E+02 -.19245504E+03 0.19342645E+03 0.00000000E+00 0.0000E+00 0.9000E+01
#aMCatNLO 2  0  0  2  1 0.19400065D+02 0.00000000D+00  -5  5  0 0.00000000D+00 0.00000000D+00 0.00000000D+00 0.00000000D+00 0.00000000D+00
  <mgrwgt>
 -.2387996489D+03    2    2    0
 0.456772700433067D+02 0.000000000000000D+00 0.000000000000000D+00 0.456772700433067D+02
 0.456772700433067D+02 0.000000000000000D+00 0.000000000000000D+00 -.456772700433067D+02
 0.456772700433067D+02 0.405302301260939D+02 0.691035437493908D+01 -.198987549094861D+02
 0.456772700433067D+02 -.405302301260939D+02 -.691035437493908D+01 0.198987549094861D+02
 0.000000000000000D+00 -.000000000000000D+00 -.000000000000000D+00 -.000000000000000D+00
 0.468662840750797D+02 0.000000000000000D+00 0.000000000000000D+00 0.468662840750797D+02
 0.583776531751236D+03 0.000000000000000D+00 0.000000000000000D+00 -.583776531751236D+03
 0.538617533242645D+02 0.479956098739950D+02 0.141968115096099D+02 -.198987549094861D+02
 0.395218515724159D+02 -.341403362379427D+02 -.673606951045611D+00 0.198987549094861D+02
 0.537259210929635D+03 -.138552736360523D+02 -.135232045585643D+02 -.536910247676156D+03
-.467175549716D+00 0.000000000000D+00 0.000000000000D+00 0.112484276441D+01 0.000000000000D+00  5 1 21 -13 13 1 2 0.19561657D-01 0.33103568D-01 0.26811252D+04 0.87204977D+04 0.87204977D+04 0.12155439D+01  1  2 13  4  5  2       -1 -.195859292034D+04
0.403439773040D+00 0.000000000000D+00 0.000000000000D+00 0.112484276441D+01 0.390196011647D-01  5 1 21 -13 13 1 2 0.20070862D-01 0.32263719D-01 0.26811252D+04 0.87204977D+04 0.87204977D+04 0.12155439D+01  1  2  1  4  5  2       -1 0.171979327149D+04
  </mgrwgt>
  </event>
  <event npLO=' -1 ' npNLO=' 0 '>
  5     66 0.13120323E+02 0.67898621E+02 0.75467711E-02 0.11683209E+00
        1 -1    0    0  501    0 0.00000000E+00 0.00000000E+00 0.18379900E+03 0.18379900E+03 0.00000000E+00 0.0000E+00 0.9000E+01
       -1 -1    0    0    0  501 0.00000000E+00 0.00000000E+00 -.11910513E+02 0.11910513E+02 0.00000000E+00 0.0000E+00 0.9000E+01
       23  2    1    2    0    0 0.00000000E+00 0.00000000E+00 0.17188849E+03 0.19570952E+03 0.93576501E+02 0.0000E+00 0.0000E+00
      -13  1    3    3    0    0 -.87626712E+01 0.33638411E+02 0.20444695E+02 0.40327567E+02 0.00000000E+00 0.0000E+00 0.9000E+01
       13  1    3    3    0    0 0.87626712E+01 -.33638411E+02 0.15144379E+03 0.15538195E+03 0.00000000E+00 0.0000E+00 0.9000E+01
#aMCatNLO 1  0  0  2  1 0.68541395D+02 0.00000000D+00  -5  5  0 0.00000000D+00 0.00000000D+00 0.00000000D+00 0.00000000D+00 0.00000000D+00
  <mgrwgt>
 0.3977996782D+03    5    2    0
 0.467882504720515D+02 0.000000000000000D+00 0.000000000000000D+00 0.467882504720515D+02
 0.467882504720515D+02 0.000000000000000D+00 0.000000000000000D+00 -.467882504720515D+02
 0.467882504720515D+02 -.876267124756673D+01 0.336384106879156D+02 -.313179389684829D+02
 0.467882504720515D+02 0.876267124756673D+01 -.336384106879156D+02 0.313179389684829D+02
 0.000000000000000D+00 0.000000000000000D+00 0.000000000000000D+00 0.000000000000000D+00
 0.895196021083224D+02 0.000000000000000D+00 0.000000000000000D+00 0.895196021083224D+02
 0.532405905459473D+02 0.000000000000000D+00 0.000000000000000D+00 -.532405905459473D+02
 0.435525760270490D+02 -.177825484323447D+02 0.244907033098190D+02 -.313179389684829D+02
 0.538865872944040D+02 -.128898211272121D+01 -.438325166299733D+02 0.313179389684829D+02
 0.453210293328166D+02 0.190715305450659D+02 0.193418133201543D+02 0.362790115623751D+02
0.319862819839D-01 0.000000000000D+00 0.000000000000D+00 0.338135819580D+00 0.000000000000D+00  5 1 -1 -13 13 21 0 0.28276770D-01 0.18323866D-02 0.12083271D+04 0.87565615D+04 0.87565615D+04 0.12153552D+01  1  2  2  2  5  2       -1 0.387046201751D+03
-.158625734941D-02 0.000000000000D+00 -.122835745000D-03 0.338135819580D+00 0.000000000000D+00  5 1 -1 -13 13 21 2 0.28276770D-01 0.18323866D-02 0.12083271D+04 0.87565615D+04 0.87565615D+04 0.12153552D+01  1  2  3  2  5  2       -1 -.327000048293D+02
0.174182918537D-02 0.000000000000D+00 0.000000000000D+00 0.338135819580D+00 0.000000000000D+00  5 1 -1 -13 13 21 2 0.28276770D-01 0.18323866D-02 0.12083271D+04 0.87565615D+04 0.87565615D+04 0.12153552D+01  1  2 15  2  5  2       -1 0.311322898499D+02
0.869159095958D-03 0.000000000000D+00 0.000000000000D+00 0.338135819580D+00 0.000000000000D+00  5 1 -1 -13 13 21 2 0.28276770D-01 0.39893717D-02 0.25644192D+04 0.94943905D+04 0.94943905D+04 0.12116746D+01  1  2 12  2  5  2       -1 0.517656639533D+01
0.732444547367D-04 0.000000000000D+00 0.000000000000D+00 0.338135819580D+00 0.000000000000D+00  5 1 21 -13 13 1 2 0.28276770D-01 0.39893717D-02 0.25644192D+04 0.94943905D+04 0.94943905D+04 0.12116746D+01  1  2 12  4  5  2       -1 0.714462507427D+01
  </mgrwgt>
  </event>
  <event npLO=' -1 ' npNLO=' 0 '>
  5     66 0.13120323E+02 0.53243708E+02 0.75467711E-02 0.11810399E+00
        1 -1    0    0  501    0 0.00000000E+00 0.00000000E+00 0.19230759E+04 0.19230759E+04 0.00000000E+00 0.0000E+00 0.9000E+01
       -1 -1    0    0    0  501 0.00000000E+00 0.00000000E+00 -.10550170E+01 0.10550170E+01 0.00000000E+00 0.0000E+00 0.9000E+01
       23  2    1    2    0    0 0.00000000E+00 0.00000000E+00 0.19220209E+04 0.19241309E+04 0.90086130E+02 0.0000E+00 0.0000E+00
      -13  1    3    3    0    0 -.76430080E+01 -.39785677E+01 0.16711908E+02 0.18802458E+02 0.00000000E+00 0.0000E+00 0.9000E+01
       13  1    3    3    0    0 0.76430080E+01 0.39785677E+01 0.19053090E+04 0.19053285E+04 0.00000000E+00 0.0000E+00 0.9000E+01
#aMCatNLO 1  0  0  2  1 0.19511964D+02 0.00000000D+00  -5  5  0 0.00000000D+00 0.00000000D+00 0.00000000D+00 0.00000000D+00 0.00000000D+00
  <mgrwgt>
 0.5175760199D+03    6    2    0
 0.450430649345750D+02 0.000000000000000D+00 0.000000000000000D+00 0.450430649345750D+02
 0.450430649345750D+02 0.000000000000000D+00 0.000000000000000D+00 -.450430649345750D+02
 0.450430649345750D+02 -.764300797646024D+01 -.397856771377935D+01 -.442112330377583D+02
 0.450430649345750D+02 0.764300797646024D+01 0.397856771377935D+01 0.442112330377583D+02
 0.000000000000000D+00 0.000000000000000D+00 0.000000000000000D+00 0.000000000000000D+00
 0.541142864055637D+02 0.000000000000000D+00 0.000000000000000D+00 0.541142864055637D+02
 0.483330225002685D+02 0.000000000000000D+00 0.000000000000000D+00 -.483330225002685D+02
 0.460074404642057D+02 -.904987708716399D+01 -.895271891972972D+01 -.442112330377583D+02
 0.446613095640738D+02 0.625693864027794D+01 -.922043443041885D+00 0.442112330377583D+02
 0.117785588775527D+02 0.279293844688605D+01 0.987476236277160D+01 0.578126390529524D+01
0.428121242831D-01 0.000000000000D+00 0.000000000000D+00 0.100747410871D+01 0.000000000000D+00  5 1 -1 -13 13 21 0 0.29585783D+00 0.16231030D-03 0.74244572D+02 0.81155108D+04 0.81155108D+04 0.12188466D+01  1  2  2  2  5  2       -1 0.348919529035D+03
0.553222358546D-02 0.000000000000D+00 -.164409829938D-03 0.100747410871D+01 0.000000000000D+00  5 1 -1 -13 13 21 2 0.29585783D+00 0.16231030D-03 0.74244572D+02 0.81155108D+04 0.81155108D+04 0.12188466D+01  1  2  3  2  5  2       -1 0.576375056325D+02
0.146116713881D-02 0.000000000000D+00 0.000000000000D+00 0.100747410871D+01 0.000000000000D+00  5 1 -1 -13 13 21 2 0.29585783D+00 0.16231030D-03 0.74244572D+02 0.81155108D+04 0.81155108D+04 0.12188466D+01  1  2 15  2  5  2       -1 0.176911675119D+02
0.135678153434D-01 0.000000000000D+00 0.000000000000D+00 0.100747410871D+01 0.000000000000D+00  5 1 -1 -13 13 21 2 0.29585783D+00 0.20924067D-03 0.21486562D+03 0.82208222D+04 0.82208222D+04 0.12182522D+01  1  2 12  2  5  2       -1 0.117003464687D+03
-.925063207420D-02 0.000000000000D+00 0.000000000000D+00 0.100747410871D+01 0.000000000000D+00  5 1 -1 -13 13 21 2 0.29585783D+00 0.16231030D-03 0.74244572D+02 0.81155108D+04 0.81155108D+04 0.12188466D+01  1  2  4  2  5  2       -1 -.112002574702D+03
0.464547458752D-03 0.000000000000D+00 0.000000000000D+00 0.100747410871D+01 0.000000000000D+00  5 1 21 -13 13 1 2 0.29585783D+00 0.20924067D-03 0.21486562D+03 0.82208222D+04 0.82208222D+04 0.12182522D+01  1  2 12  4  5  2       -1 0.883269277125D+02
  </mgrwgt>
  </event>
  <event npLO=' -1 ' npNLO=' 0 '>
  5     66 -.13120323E+02 0.40087106E+02 0.75467711E-02 0.11758690E+00
        5 -1    0    0  501    0 0.00000000E+00 0.00000000E+00 0.29264339E+02 0.29264339E+02 0.00000000E+00 0.0000E+00 0.9000E+01
       -5 -1    0    0    0  501 0.00000000E+00 0.00000000E+00 -.73961170E+02 0.73961170E+02 0.00000000E+00 0.0000E+00 0.9000E+01
       23  2    1    2    0    0 0.00000000E+00 0.00000000E+00 -.44696831E+02 0.10322551E+03 0.93046758E+02 0.0000E+00 0.0000E+00
      -13  1    3    3    0    0 -.11262880E+02 -.42460670E+02 -.53538979E+01 0.44254098E+02 0.00000000E+00 0.0000E+00 0.9000E+01
       13  1    3    3    0    0 0.11262880E+02 0.42460670E+02 -.39342933E+02 0.58971411E+02 0.00000000E+00 0.0000E+00 0.9000E+01
#aMCatNLO 1  0  0  1  2 0.94781806D+01 0.00000000D+00  -5  5  0 0.00000000D+00 0.00000000D+00 0.00000000D+00 0.00000000D+00 0.00000000D+00
  <mgrwgt>
 -.5628052397D+02   11    2    0
 0.465233788383132D+02 0.000000000000000D+00 0.000000000000000D+00 0.465233788383132D+02
 0.465233788383132D+02 0.000000000000000D+00 0.000000000000000D+00 -.465233788383132D+02
 0.465233788383132D+02 -.112628795930942D+02 -.424606702970954D+02 0.153187401481333D+02
 0.465233788383132D+02 0.112628795930942D+02 0.424606702970954D+02 -.153187401481333D+02
 0.000000000000000D+00 0.000000000000000D+00 0.000000000000000D+00 0.000000000000000D+00
 0.514939298003101D+02 0.000000000000000D+00 0.000000000000000D+00 0.514939298003101D+02
 0.495477185738385D+02 0.000000000000000D+00 0.000000000000000D+00 -.495477185738385D+02
 0.500645448264178D+02 -.131978199818233D+02 -.457996986526959D+02 0.153187401481333D+02
 0.432797660873877D+02 0.946385829147903D+01 0.393561906069651D+02 -.153187401481333D+02
 0.769733746034301D+01 0.373396169034426D+01 0.644350804573078D+01 0.194621122647155D+01
0.258020649286D-01 0.000000000000D+00 0.000000000000D+00 0.252220926233D+00 0.000000000000D+00  5 5 -5 -13 13 21 0 0.45022060D-02 0.11378642D-01 0.19297610D+04 0.86576991D+04 0.86576991D+04 0.12158746D+01  1  2  2  1  5  1        5 0.399032201959D+02
-.142770988596D-02 0.000000000000D+00 -.990867231656D-04 0.252220926233D+00 0.000000000000D+00  5 5 -5 -13 13 21 2 0.45022060D-02 0.11378642D-01 0.19297610D+04 0.86576991D+04 0.86576991D+04 0.12158746D+01  1  2  3  1  5  1        5 -.360420672615D+01
0.125982894836D-02 0.000000000000D+00 0.000000000000D+00 0.252220926233D+00 0.000000000000D+00  5 5 -5 -13 13 21 2 0.45022060D-02 0.11378642D-01 0.19297610D+04 0.86576991D+04 0.86576991D+04 0.12158746D+01  1  2 15  1  5  1        5 0.288033264951D+01
0.340796454046D-01 0.000000000000D+00 0.000000000000D+00 0.252220926233D+00 0.000000000000D+00  5 5 -5 -13 13 21 2 0.53071647D-02 0.11378642D-01 0.22842977D+04 0.87131604D+04 0.87131604D+04 0.12155824D+01  1  2 12  1  5  1        5 0.598531551276D+02
-.366035918111D-01 0.000000000000D+00 0.000000000000D+00 0.252220926233D+00 0.000000000000D+00  5 5 -5 -13 13 21 2 0.45022060D-02 0.11378642D-01 0.19297610D+04 0.86576991D+04 0.86576991D+04 0.12158746D+01  1  2  4  1  5  1        5 -.836863772023D+02
-.106989104625D+00 0.000000000000D+00 -.260772872391D-01 0.252220926233D+00 0.000000000000D+00  5 5 -5 -13 13 21 2 0.53029718D-02 0.11378642D-01 0.19297610D+04 0.86576991D+04 0.86576991D+04 0.12158746D+01  1  2  5  1  5  1        5 -.256723419939D+03
0.110124659963D+00 0.000000000000D+00 0.257317415327D-01 0.252220926233D+00 0.000000000000D+00  5 5 -5 -13 13 21 2 0.45022060D-02 0.11378642D-01 0.19297610D+04 0.86576991D+04 0.86576991D+04 0.12158746D+01  1  2  6  1  5  1        5 0.340083985028D+03
0.422772714520D-06 0.000000000000D+00 0.000000000000D+00 0.252220926233D+00 0.362760079096D-01  5 5 -5 -13 13 21 2 0.49832211D-02 0.12118332D-01 0.22842977D+04 0.87131604D+04 0.87131604D+04 0.12155824D+01  1  2 11  1  5  1        5 0.736755349998D-03
0.837118131589D-03 0.000000000000D+00 0.000000000000D+00 0.252220926233D+00 0.000000000000D+00  5 21 -5 -13 13 -5 2 0.53071647D-02 0.11378642D-01 0.22842977D+04 0.87131604D+04 0.87131604D+04 0.12155824D+01  1  2 12  3  5  1        5 0.512863604969D+02
-.240640595016D-02 0.000000000000D+00 -.638099667043D-03 0.252220926233D+00 0.000000000000D+00  5 21 -5 -13 13 -5 2 0.53029718D-02 0.11378642D-01 0.19297610D+04 0.86576991D+04 0.86576991D+04 0.12158746D+01  1  2  5  3  5  1        5 -.206275002203D+03
0.113946110898D-07 0.000000000000D+00 0.000000000000D+00 0.252220926233D+00 0.657089610844D-03  5 21 -5 -13 13 -5 2 0.49832211D-02 0.12118332D-01 0.22842977D+04 0.87131604D+04 0.87131604D+04 0.12155824D+01  1  2 11  3  5  1        5 0.691841778963D-03
  </mgrwgt>
  </event>
  <event npLO=' -1 ' npNLO=' 0 '>
  6     66 0.13120323E+02 0.91197213E+02 0.75467711E-02 0.11784752E+00
       21 -1    0    0  501  502 0.00000000E+00 0.00000000E+00 0.23929172E+02 0.23929172E+02 0.00000000E+00 0.0000E+00 0.9000E+01
       -3 -1    0    0    0  501 0.00000000E+00 0.00000000E+00 -.11538023E+03 0.11538023E+03 0.00000000E+00 0.0000E+00 0.9000E+01
       23  2    1    2    0    0 0.11751825E+02 0.24153884E+01 -.73614330E+02 0.11781316E+03 0.91197213E+02 0.0000E+00 0.0000E+00
      -13  1    3    3    0    0 0.38325076E+02 -.15828132E+02 -.46964475E+01 0.41730059E+02 0.00000000E+00 0.0000E+00 0.9000E+01
       13  1    3    3    0    0 -.26573252E+02 0.18243521E+02 -.68917882E+02 0.76083101E+02 0.00000000E+00 0.0000E+00 0.9000E+01
       -3  1    1    2    0  502 -.11751825E+02 -.24153884E+01 -.17836725E+02 0.21496238E+02 0.00000000E+00 0.0000E+00 0.9000E+01
#aMCatNLO 2  0  0  1  2 0.21559107D+02 0.00000000D+00  -5  5  0 0.00000000D+00 0.00000000D+00 0.00000000D+00 0.00000000D+00 0.00000000D+00
  <mgrwgt>
 0.2711579703D+02    2    2    0
 0.455986065607001D+02 0.000000000000000D+00 0.000000000000000D+00 0.455986065607001D+02
 0.455986065607001D+02 0.000000000000000D+00 0.000000000000000D+00 -.455986065607001D+02
 0.455986065607001D+02 0.322118959375177D+02 -.170845928046210D+02 0.273814420564064D+02
 0.455986065607001D+02 -.322118959375177D+02 0.170845928046210D+02 -.273814420564064D+02
 0.000000000000000D+00 -.000000000000000D+00 -.000000000000000D+00 -.000000000000000D+00
 0.497994363334569D+02 0.000000000000000D+00 0.000000000000000D+00 0.497994363334569D+02
 0.554414556587780D+02 0.000000000000000D+00 0.000000000000000D+00 -.554414556587780D+02
 0.496898843139065D+02 0.383250761876834D+02 -.158281322097501D+02 0.273814420564064D+02
 0.422931095578698D+02 -.265732516668653D+02 0.182435205712899D+02 -.273814420564064D+02
 0.132578981204586D+02 -.117518245208181D+02 -.241538836153973D+01 -.564201932532107D+01
-.376738122412D-03 0.000000000000D+00 0.000000000000D+00 0.921397578200D+00 0.000000000000D+00  5 21 -3 -13 13 -3 2 0.44760751D-02 0.14599399D-01 0.18359245D+04 0.84608712D+04 0.84608712D+04 0.12169288D+01  1  2 13  3  5  1        3 -.438937805279D+02
0.622772302175D-03 0.000000000000D+00 0.000000000000D+00 0.921397578200D+00 0.972605082035D-03  5 21 -3 -13 13 -3 2 0.36814110D-02 0.17750804D-01 0.18359245D+04 0.84608712D+04 0.84608712D+04 0.12169288D+01  1  2  1  3  5  1        3 0.710095775530D+02
  </mgrwgt>
  </event>
  <event npLO=' -1 ' npNLO=' 0 '>
  5     66 0.13120323E+02 0.38508741E+02 0.75467711E-02 0.11999826E+00
        5 -1    0    0  501    0 0.00000000E+00 0.00000000E+00 0.11139983E+03 0.11139983E+03 0.00000000E+00 0.0000E+00 0.9000E+01
       -5 -1    0    0    0  501 0.00000000E+00 0.00000000E+00 -.14691802E+02 0.14691802E+02 0.00000000E+00 0.0000E+00 0.9000E+01
       23  2    1    2    0    0 0.00000000E+00 0.00000000E+00 0.96708024E+02 0.12609163E+03 0.80911412E+02 0.0000E+00 0.0000E+00
      -13  1    3    3    0    0 -.21442254E+02 -.19435116E+02 0.92409104E+02 0.96834583E+02 0.00000000E+00 0.0000E+00 0.9000E+01
       13  1    3    3    0    0 0.21442254E+02 0.19435116E+02 0.42989205E+01 0.29257045E+02 0.00000000E+00 0.0000E+00 0.9000E+01
#aMCatNLO 1  0  0  2  1 0.30520527D+02 0.00000000D+00  -5  5  0 0.00000000D+00 0.00000000D+00 0.00000000D+00 0.00000000D+00 0.00000000D+00
  <mgrwgt>
 0.6434391058D+02    6    2    0
 0.404557061747298D+02 0.000000000000000D+00 0.000000000000000D+00 0.404557061747298D+02
 0.404557061747298D+02 0.000000000000000D+00 0.000000000000000D+00 -.404557061747298D+02
 0.404557061747298D+02 -.214422535834500D+02 -.194351158632159D+02 0.282695984184862D+02
 0.404557061747298D+02 0.214422535834500D+02 0.194351158632159D+02 -.282695984184862D+02
 0.000000000000000D+00 -.000000000000000D+00 -.000000000000000D+00 0.000000000000000D+00
 0.572619888741963D+02 0.000000000000000D+00 0.000000000000000D+00 0.572619888741963D+02
 0.427661162461723D+02 0.000000000000000D+00 0.000000000000000D+00 -.427661162461723D+02
 0.372573347915077D+02 -.162645441620334D+02 -.180112021871190D+02 0.282695984184862D+02
 0.444304474545052D+02 0.270978788418266D+02 0.209904604175030D+02 -.282695984184862D+02
 0.183403228743557D+02 -.108333346797932D+02 -.297925823038401D+01 0.144958726280240D+02
0.246965338720D-01 0.000000000000D+00 0.000000000000D+00 0.134701103872D-01 0.000000000000D+00  5 5 -5 -13 13 21 0 0.17138435D-01 0.22602772D-02 0.83749397D+03 0.65466566D+04 0.65466566D+04 0.12288858D+01  1  2  2  2  5  2       -5 0.506623323637D+02
-.118481650839D-02 0.000000000000D+00 -.948411928151D-04 0.134701103872D-01 0.000000000000D+00  5 5 -5 -13 13 21 2 0.17138435D-01 0.22602772D-02 0.83749397D+03 0.65466566D+04 0.65466566D+04 0.12288858D+01  1  2  3  2  5  2       -5 -.427464776080D+01
0.100335973774D-02 0.000000000000D+00 0.000000000000D+00 0.134701103872D-01 0.000000000000D+00  5 5 -5 -13 13 21 2 0.17138435D-01 0.22602772D-02 0.83749397D+03 0.65466566D+04 0.65466566D+04 0.12288858D+01  1  2 15  2  5  2       -5 0.310834265653D+01
0.487042624012D-02 0.000000000000D+00 0.000000000000D+00 0.134701103872D-01 0.000000000000D+00  5 5 -5 -13 13 21 2 0.17138435D-01 0.33819593D-02 0.12173234D+04 0.66728938D+04 0.66728938D+04 0.12279832D+01  1  2 12  2  5  2       -5 0.811595160701D+01
-.226242364015D-02 0.000000000000D+00 0.000000000000D+00 0.134701103872D-01 0.000000000000D+00  5 5 -5 -13 13 21 2 0.17138435D-01 0.22602772D-02 0.83749397D+03 0.65466566D+04 0.65466566D+04 0.12288858D+01  1  2  4  2  5  2       -5 -.700884004338D+01
0.233093371096D-03 0.000000000000D+00 0.000000000000D+00 0.134701103872D-01 0.000000000000D+00  5 5 21 -13 13 5 2 0.17138435D-01 0.33819593D-02 0.12173234D+04 0.66728938D+04 0.66728938D+04 0.12279832D+01  1  2 12  4  5  2       -5 0.137407717576D+02
  </mgrwgt>
  </event>
  <event npLO=' -1 ' npNLO=' 0 '>
  5     66 0.13120323E+02 0.48184208E+02 0.75467711E-02 0.11799315E+00
        1 -1    0    0  501    0 0.00000000E+00 0.00000000E+00 0.20663834E+02 0.20663834E+02 0.00000000E+00 0.0000E+00 0.9000E+01
       -1 -1    0    0    0  501 0.00000000E+00 0.00000000E+00 -.10025353E+03 0.10025353E+03 0.00000000E+00 0.0000E+00 0.9000E+01
       23  2    1    2    0    0 0.00000000E+00 0.00000000E+00 -.79589696E+02 0.12091736E+03 0.91030155E+02 0.0000E+00 0.0000E+00
      -13  1    3    3    0    0 -.36261246E+01 -.24608204E+01 -.99972644E+02 0.10006865E+03 0.00000000E+00 0.0000E+00 0.9000E+01
       13  1    3    3    0    0 0.36261246E+01 0.24608204E+01 0.20382948E+02 0.20848717E+02 0.00000000E+00 0.0000E+00 0.9000E+01
#aMCatNLO 1  0  0  2  1 0.69731785D+01 0.00000000D+00  -5  5  0 0.00000000D+00 0.00000000D+00 0.00000000D+00 0.00000000D+00 0.00000000D+00
  <mgrwgt>
 0.3238976542D+03   11    2    0
 0.455150772662431D+02 0.000000000000000D+00 0.000000000000000D+00 0.455150772662431D+02
 0.455150772662431D+02 0.000000000000000D+00 0.000000000000000D+00 -.455150772662431D+02
 0.455150772662431D+02 -.362612463024547D+01 -.246082039422429D+01 -.453036184173557D+02
 0.455150772662431D+02 0.362612463024547D+01 0.246082039422429D+01 0.453036184173557D+02
 0.000000000000000D+00 -.000000000000000D+00 -.000000000000000D+00 -.000000000000000D+00
 0.472459944757178D+02 0.000000000000000D+00 0.000000000000000D+00 0.472459944757178D+02
 0.513093039283330D+02 0.000000000000000D+00 0.000000000000000D+00 -.513093039283330D+02
 0.453513062937983D+02 -.627645640063329D+00 -.198222143037668D+01 -.453036184173557D+02
 0.458823751278032D+02 0.664212823930994D+01 0.294221653106073D+01 0.453036184173557D+02
 0.732161698244930D+01 -.601448259924661D+01 -.959995100684058D+00 -.406330945261524D+01
0.252643108167D-01 0.000000000000D+00 0.000000000000D+00 0.193487645800D+01 0.000000000000D+00  5 1 -1 -13 13 21 0 0.31790513D-02 0.15423620D-01 0.19204417D+02 0.82864890D+04 0.82864890D+04 0.12178859D+01  1  2  2  2  5  2       -1 0.248669013030D+03
0.794453911844D-02 0.000000000000D+00 -.970216057818D-04 0.193487645800D+01 0.000000000000D+00  5 1 -1 -13 13 21 2 0.31790513D-02 0.15423620D-01 0.19204417D+02 0.82864890D+04 0.82864890D+04 0.12178859D+01  1  2  3  2  5  2       -1 0.107389646678D+03
0.635700348691D-03 0.000000000000D+00 0.000000000000D+00 0.193487645800D+01 0.000000000000D+00  5 1 -1 -13 13 21 2 0.31790513D-02 0.15423620D-01 0.19204417D+02 0.82864890D+04 0.82864890D+04 0.12178859D+01  1  2 15  2  5  2       -1 0.928068207690D+01
0.431640319883D-01 0.000000000000D+00 0.000000000000D+00 0.193487645800D+01 0.000000000000D+00  5 1 -1 -13 13 21 2 0.31790513D-02 0.18048323D-01 0.59555468D+02 0.83235846D+04 0.83235846D+04 0.12176804D+01  1  2 12  2  5  2       -1 0.496712352391D+03
-.499114990091D-01 0.000000000000D+00 0.000000000000D+00 0.193487645800D+01 0.000000000000D+00  5 1 -1 -13 13 21 2 0.31790513D-02 0.15423620D-01 0.19204417D+02 0.82864890D+04 0.82864890D+04 0.12178859D+01  1  2  4  2  5  2       -1 -.728665251229D+03
-.973023290035D-02 0.000000000000D+00 -.214397073176D-01 0.193487645800D+01 0.000000000000D+00  5 1 -1 -13 13 21 2 0.31790513D-02 0.18003375D-01 0.19204417D+02 0.82864890D+04 0.82864890D+04 0.12178859D+01  1  2  5  2  5  2       -1 -.161500606470D+04
0.131424682568D-01 0.000000000000D+00 0.211858251621D-01 0.193487645800D+01 0.000000000000D+00  5 1 -1 -13 13 21 2 0.31790513D-02 0.15423620D-01 0.19204417D+02 0.82864890D+04 0.82864890D+04 0.12178859D+01  1  2  6  2  5  2       -1 0.206843592116D+04
0.229119642100D-02 0.000000000000D+00 0.000000000000D+00 0.193487645800D+01 0.415013086680D+00  5 1 -1 -13 13 21 2 0.32999492D-02 0.17387100D-01 0.59555468D+02 0.83235846D+04 0.83235846D+04 0.12176804D+01  1  2 11  2  5  2       -1 0.265279234055D+02
0.102228820464D-02 0.000000000000D+00 0.000000000000D+00 0.193487645800D+01 0.000000000000D+00  5 1 21 -13 13 1 2 0.31790513D-02 0.18048323D-01 0.59555468D+02 0.83235846D+04 0.83235846D+04 0.12176804D+01  1  2 12  4  5  2       -1 0.144292481251D+03
-.703140932317D-04 0.000000000000D+00 -.501287140580D-03 0.193487645800D+01 0.000000000000D+00  5 1 21 -13 13 1 2 0.31790513D-02 0.18003375D-01 0.19204417D+02 0.82864890D+04 0.82864890D+04 0.12178859D+01  1  2  5  4  5  2       -1 -.441176292415D+03
0.519111405672D-04 0.000000000000D+00 0.000000000000D+00 0.193487645800D+01 0.801419119788D-02  5 1 21 -13 13 1 2 0.32999492D-02 0.17387100D-01 0.59555468D+02 0.83235846D+04 0.83235846D+04 0.12176804D+01  1  2 11  4  5  2       -1 0.743724250877D+01
  </mgrwgt>
  </event>
  <event npLO=' -1 ' npNLO=' 0 '>
  5     66 0.13120323E+02 0.54648332E+02 0.75467711E-02 0.11793925E+00
        1 -1    0    0  501    0 0.00000000E+00 0.00000000E+00 0.89960097E+02 0.89960097E+02 0.00000000E+00 0.0000E+00 0.9000E+01
       -1 -1    0    0    0  501 0.00000000E+00 0.00000000E+00 -.23165357E+02 0.23165357E+02 0.00000000E+00 0.0000E+00 0.9000E+01
       23  2    1    2    0    0 0.00000000E+00 0.00000000E+00 0.66794739E+02 0.11312545E+03 0.91300773E+02 0.0000E+00 0.0000E+00
      -13  1    3    3    0    0 0.35509715E+02 -.10579696E+02 0.35679941E+00 0.37053976E+02 0.00000000E+00 0.0000E+00 0.9000E+01
       13  1    3    3    0    0 -.35509715E+02 0.10579696E+02 0.66437940E+02 0.76071478E+02 0.00000000E+00 0.0000E+00 0.9000E+01
#aMCatNLO 1  0  0  2  1 0.26467322D+02 0.00000000D+00  -5  5  0 0.00000000D+00 0.00000000D+00 0.00000000D+00 0.00000000D+00 0.00000000D+00
  <mgrwgt>
 0.2847594817D+03    6    2    0
 0.456503864013489D+02 0.000000000000000D+00 0.000000000000000D+00 0.456503864013489D+02
 0.456503864013489D+02 0.000000000000000D+00 0.000000000000000D+00 -.456503864013489D+02
 0.456503864013489D+02 0.355097154774061D+02 -.105796955411535D+02 -.266662319715895D+02
 0.456503864013489D+02 -.355097154774061D+02 0.105796955411535D+02 0.266662319715895D+02
 0.000000000000000D+00 0.000000000000000D+00 0.000000000000000D+00 0.000000000000000D+00
 0.604393751480289D+02 0.000000000000000D+00 0.000000000000000D+00 0.604393751480289D+02
 0.464064288450909D+02 0.000000000000000D+00 0.000000000000000D+00 -.464064288450909D+02
 0.452666332564550D+02 0.340745202660306D+02 -.133006476327901D+02 -.266662319715895D+02
 0.462434337398310D+02 -.369603302370850D+02 0.782950989865528D+01 0.266662319715895D+02
 0.153357369968337D+02 0.288580997105433D+01 0.547113773413484D+01 0.140329463029380D+02
0.191793099546D-01 0.000000000000D+00 0.000000000000D+00 0.130856555545D+01 0.000000000000D+00  5 1 -1 -13 13 21 0 0.13840015D-01 0.35639011D-02 0.13728699D+04 0.83358311D+04 0.83358311D+04 0.12176128D+01  1  2  2  2  5  2       -1 0.223163672756D+03
-.100909954986D-02 0.000000000000D+00 -.736536002539D-04 0.130856555545D+01 0.000000000000D+00  5 1 -1 -13 13 21 2 0.13840015D-01 0.35639011D-02 0.13728699D+04 0.83358311D+04 0.83358311D+04 0.12176128D+01  1  2  3  2  5  2       -1 -.196994620883D+02
0.944579306743D-03 0.000000000000D+00 0.000000000000D+00 0.130856555545D+01 0.000000000000D+00  5 1 -1 -13 13 21 2 0.13840015D-01 0.35639011D-02 0.13728699D+04 0.83358311D+04 0.83358311D+04 0.12176128D+01  1  2 15  2  5  2       -1 0.162947379705D+02
0.471138583187D-02 0.000000000000D+00 0.000000000000D+00 0.130856555545D+01 0.000000000000D+00  5 1 -1 -13 13 21 2 0.13840015D-01 0.47966148D-02 0.16218538D+04 0.83740924D+04 0.83740924D+04 0.12174023D+01  1  2 12  2  5  2       -1 0.532268428426D+02
-.120415687123D-02 0.000000000000D+00 0.000000000000D+00 0.130856555545D+01 0.000000000000D+00  5 1 -1 -13 13 21 2 0.13840015D-01 0.35639011D-02 0.13728699D+04 0.83358311D+04 0.83358311D+04 0.12176128D+01  1  2  4  2  5  2       -1 -.207726556702D+02
0.180825691925D-03 0.000000000000D+00 0.000000000000D+00 0.130856555545D+01 0.000000000000D+00  5 1 21 -13 13 1 2 0.13840015D-01 0.47966148D-02 0.16218538D+04 0.83740924D+04 0.83740924D+04 0.12174023D+01  1  2 12  4  5  2       -1 0.325463458510D+02
  </mgrwgt>
  </event>
  <event npLO=' -1 ' npNLO=' 0 '>
  6     66 0.13120323E+02 0.93369931E+02 0.75467711E-02 0.11710301E+00
        1 -1    0    0  501    0 0.00000000E+00 0.00000000E+00 0.11855653E+03 0.11855653E+03 0.00000000E+00 0.0000E+00 0.9000E+01
       21 -1    0    0  502  501 0.00000000E+00 0.00000000E+00 -.34487848E+02 0.34487848E+02 0.00000000E+00 0.0000E+00 0.9000E+01
       23  2    1    2    0    0 0.22067628E+02 0.32343959E+00 0.88507977E+02 0.13053234E+03 0.93369931E+02 0.0000E+00 0.0000E+00
      -11  1    3    3    0    0 0.31964581E+02 -.11694052E+02 -.61628603E+01 0.34589972E+02 0.00000000E+00 0.0000E+00 0.9000E+01
       11  1    3    3    0    0 -.98969533E+01 0.12017492E+02 0.94670837E+02 0.95942364E+02 0.00000000E+00 0.0000E+00 0.9000E+01
        1  1    1    2  502    0 -.22067628E+02 -.32343959E+00 -.44392928E+01 0.22512044E+02 0.00000000E+00 0.0000E+00 0.9000E+01
#aMCatNLO 2  0  0  2  1 0.24126731D+02 0.00000000D+00  -5  5  0 0.00000000D+00 0.00000000D+00 0.00000000D+00 0.00000000D+00 0.00000000D+00
  <mgrwgt>
 0.2080600200D+02    2    2    0
 0.466849653806147D+02 0.000000000000000D+00 0.000000000000000D+00 0.466849653806147D+02
 0.466849653806147D+02 0.000000000000000D+00 0.000000000000000D+00 -.466849653806147D+02
 0.466849653806147D+02 0.203742439623312D+02 -.118639288800025D+02 -.402942100937944D+02
 0.466849653806147D+02 -.203742439623312D+02 0.118639288800025D+02 0.402942100937944D+02
 0.000000000000000D+00 -.000000000000000D+00 -.000000000000000D+00 -.000000000000000D+00
 0.519294846028603D+02 0.000000000000000D+00 0.000000000000000D+00 0.519294846028603D+02
 0.787367662522734D+02 0.000000000000000D+00 0.000000000000000D+00 -.787367662522734D+02
 0.527456982974804D+02 0.319645813900631D+02 -.116940522644640D+02 -.402942100937944D+02
 0.431971429846969D+02 -.989695329430732D+01 0.120174918534530D+02 0.402942100937944D+02
 0.347234095729563D+02 -.220676280957558D+02 -.323439588988970D+00 -.268072816494131D+02
-.174678107353D-02 0.000000000000D+00 0.000000000000D+00 0.470389398413D+00 0.000000000000D+00  5 1 21 -11 11 1 2 0.16397406D-01 0.59018710D-02 0.12843177D+04 0.92050288D+04 0.92050288D+04 0.12130787D+01  1  2 13  4  5  2       -1 -.181329728999D+03
0.187894535953D-02 0.000000000000D+00 0.000000000000D+00 0.470389398413D+00 0.540232239516D-03  5 1 21 -11 11 1 2 0.18239467D-01 0.53058228D-02 0.12843177D+04 0.92050288D+04 0.92050288D+04 0.12130787D+01  1  2  1  4  5  2       -1 0.202135730997D+03
  </mgrwgt>
  </event>
  <event npLO=' -1 ' npNLO=' 0 '>
  5     66 0.13120323E+02 0.73814331E+02 0.75467711E-02 0.11095387E+00
        1 -1    0    0  501    0 0.00000000E+00 0.00000000E+00 0.18709322E+04 0.18709322E+04 0.00000000E+00 0.0000E+00 0.9000E+01
       -1 -1    0    0    0  501 0.00000000E+00 0.00000000E+00 -.72805359E+00 0.72805359E+00 0.00000000E+00 0.0000E+00 0.9000E+01
       23  2    1    2    0    0 0.00000000E+00 0.00000000E+00 0.18702041E+04 0.18716602E+04 0.73814331E+02 0.0000E+00 0.0000E+00
      -11  1    3    3    0    0 0.21865164E+02 -.17378634E+02 0.32336969E+03 0.32457366E+03 0.00000000E+00 0.0000E+00 0.9000E+01
       11  1    3    3    0    0 -.21865164E+02 0.17378634E+02 0.15468344E+04 0.15470866E+04 0.00000000E+00 0.0000E+00 0.9000E+01
#aMCatNLO 1  0  0  1  2 0.26196408D+03 0.00000000D+00  -5  5  0 0.00000000D+00 0.00000000D+00 0.00000000D+00 0.00000000D+00 0.00000000D+00
  <mgrwgt>
 0.2963602201D+03    3    2    0
 0.369071657074529D+02 0.000000000000000D+00 0.000000000000000D+00 0.369071657074529D+02
 0.369071657074529D+02 0.000000000000000D+00 0.000000000000000D+00 -.369071657074529D+02
 0.369071657074529D+02 0.218651635927604D+02 -.173786343379539D+02 -.241254340928179D+02
 0.369071657074529D+02 -.218651635927604D+02 0.173786343379539D+02 0.241254340928179D+02
 0.000000000000000D+00 -.000000000000000D+00 0.000000000000000D+00 -.000000000000000D+00
 0.858085155122762D+02 0.000000000000000D+00 0.000000000000000D+00 0.858085155122762D+02
 0.281356413956314D+03 0.000000000000000D+00 0.000000000000000D+00 -.281356413956314D+03
 0.111160511363363D+03 0.998123634183761D+02 -.425689420262642D+02 -.241254340928179D+02
 0.277684170009024D+02 0.121819739657983D+02 0.637557235593172D+01 0.241254340928179D+02
 0.228236001104324D+03 -.111994337384174D+03 0.361933696703325D+02 -.195547898444037D+03
0.213190736932D-01 0.000000000000D+00 0.000000000000D+00 0.215366651099D-02 0.000000000000D+00  5 1 -1 -11 11 21 0 0.28783572D+00 0.11200825D-03 0.78010231D+03 0.54485555D+04 0.54485555D+04 0.12376679D+01  1  2  2  1  5  1        1 0.300636602312D+03
-.107254451848D-02 0.000000000000D+00 -.818708564230D-04 0.215366651099D-02 0.000000000000D+00  5 1 -1 -11 11 21 2 0.28783572D+00 0.11200825D-03 0.78010231D+03 0.54485555D+04 0.54485555D+04 0.12376679D+01  1  2  3  1  5  1        1 -.266059031615D+02
0.103370743474D-02 0.000000000000D+00 0.000000000000D+00 0.215366651099D-02 0.000000000000D+00  5 1 -1 -11 11 21 2 0.28783572D+00 0.11200825D-03 0.78010231D+03 0.54485555D+04 0.54485555D+04 0.12376679D+01  1  2 15  1  5  1        1 0.223295209016D+02
  </mgrwgt>
  </event>
  <event npLO=' -1 ' npNLO=' 0 '>
  6     66 0.13120323E+02 0.85323538E+02 0.75467711E-02 0.11919011E+00
        1 -1    0    0  501    0 0.00000000E+00 0.00000000E+00 0.55648438E+03 0.55648438E+03 0.00000000E+00 0.0000E+00 0.9000E+01
       21 -1    0    0  502  501 0.00000000E+00 0.00000000E+00 -.38084263E+01 0.38084263E+01 0.00000000E+00 0.0000E+00 0.9000E+01
       23  2    1    2    0    0 0.11972990E+00 -.28118090E+01 0.47798517E+03 0.48554901E+03 0.85323538E+02 0.0000E+00 0.0000E+00
      -11  1    3    3    0    0 0.38728087E+02 0.15833985E+02 0.26612953E+03 0.26939842E+03 0.00000000E+00 0.0000E+00 0.9000E+01
       11  1    3    3    0    0 -.38608357E+02 -.18645794E+02 0.21185563E+03 0.21615059E+03 0.00000000E+00 0.0000E+00 0.9000E+01
        1  1    1    2  502    0 -.11972990E+00 0.28118090E+01 0.74690787E+02 0.74743791E+02 0.00000000E+00 0.0000E+00 0.9000E+01
#aMCatNLO 2  0  0  2  1 0.12678554D+02 0.00000000D+00  -5  5  0 0.00000000D+00 0.00000000D+00 0.00000000D+00 0.00000000D+00 0.00000000D+00
  <mgrwgt>
 0.2962523375D+02    2    2    0
 0.426617691671364D+02 0.000000000000000D+00 0.000000000000000D+00 0.426617691671364D+02
 0.426617691671364D+02 0.000000000000000D+00 0.000000000000000D+00 -.426617691671364D+02
 0.426617691671364D+02 0.386685820442636D+02 0.172314288217387D+02 0.527685246311053D+01
 0.426617691671364D+02 -.386685820442636D+02 -.172314288217387D+02 -.527685246311053D+01
 0.000000000000000D+00 -.000000000000000D+00 0.000000000000000D+00 0.000000000000000D+00
 0.493049852461731D+02 0.000000000000000D+00 0.000000000000000D+00 0.493049852461731D+02
 0.429840862600026D+02 0.000000000000000D+00 0.000000000000000D+00 -.429840862600026D+02
 0.421713759051840D+02 0.387280867443041D+02 0.158339846830971D+02 0.527685246311053D+01
 0.431985649350178D+02 -.386083568407564D+02 -.186457936968188D+02 -.527685246311053D+01
 0.691913066597391D+01 -.119729903547719D+00 0.281180901372167D+01 0.632089898617045D+01
-.197972614473D-03 0.000000000000D+00 0.000000000000D+00 0.281972165701D-01 0.000000000000D+00  5 1 21 -11 11 1 2 0.74077727D-01 0.67714889D-03 0.19153467D+04 0.72880268D+04 0.72880268D+04 0.12238411D+01  1  2 13  4  5  2       -1 -.829254504637D+02
0.264341627619D-03 0.000000000000D+00 0.000000000000D+00 0.281972165701D-01 0.436383385347D-04  5 1 21 -11 11 1 2 0.85612981D-01 0.58591174D-03 0.19153467D+04 0.72880268D+04 0.72880268D+04 0.12238411D+01  1  2  1  4  5  2       -1 0.112550684209D+03
  </mgrwgt>
  </event>
</LesHouchesEvents>
