<LesHouchesEvents version="3.0">
  <!--
  <scalesfunctionalform>
    muR  FxFx merging scale
    muF1 FxFx merging scale
    muF2 FxFx merging scale
    QES  H_T/2 := sum_i mT(i)/2, i=final state
  </scalesfunctionalform>
PYTHIA8   
  -->
  <header>
       47
  </header>
  <init>
   2212   2212 0.65000000D+04 0.65000000D+04 -1 -1 306000 306000 -4   1
 0.20531604D+03 0.33530962D+01 0.13416416D+02     66
  </init>
  <event npLO=' -1 ' npNLO=' 1 '>
  7     66 0.13416416E+02 0.46873503E+02 0.75467711E-02 0.12727369E+00
       21 -1    0    0  501  503 0.00000000E+00 0.00000000E+00 0.49201130E+02 0.49201130E+02 0.00000000E+00 0.0000E+00 0.9000E+01
        2 -1    0    0  502    0 0.00000000E+00 0.00000000E+00 -.24495213E+03 0.24495213E+03 0.00000000E+00 0.0000E+00 0.9000E+01
       23  2    1    2    0    0 -.98015029E+01 -.41431189E+02 -.16318008E+03 0.19299611E+03 0.93846396E+02 0.0000E+00 0.0000E+00
      -11  1    3    3    0    0 0.29825711E+02 0.12293949E+02 -.80536508E+02 0.86757383E+02 0.00000000E+00 0.0000E+00 0.9000E+01
       11  1    3    3    0    0 -.39627214E+02 -.53725139E+02 -.82643570E+02 0.10623872E+03 0.00000000E+00 0.0000E+00 0.9000E+01
        2  1    1    2  501    0 -.22918315E+02 -.76002723E+01 -.34581038E+02 0.42176551E+02 0.00000000E+00 0.0000E+00 0.9000E+01
       21  1    1    2  502  503 0.32719818E+02 0.49031462E+02 0.20101188E+01 0.58980601E+02 0.00000000E+00 0.0000E+00 0.9000E+01
#aMCatNLO 2  0  0  1  5 0.75914703D+02 0.00000000D+00  -5  6  0 0.00000000D+00 0.00000000D+00 0.00000000D+00 0.00000000D+00 0.00000000D+00
  <mgrwgt>
 0.2096524704D+02    1    2    0
 0.563960300919443D+02 0.000000000000000D+00 0.000000000000000D+00 0.563960300919443D+02
 0.563960300919443D+02 0.000000000000000D+00 0.000000000000000D+00 -.563960300919443D+02
 0.536798116903539D+02 0.419359071814485D+02 0.304413793616472D+02 -.140080082289050D+02
 0.417577342077792D+02 -.246816000160688D+02 -.313287634623909D+02 0.123707544932346D+02
 0.173545142857555D+02 -.172543071653796D+02 0.887384100743682D+00 0.163725373567045D+01
 0.000000000000000D+00 0.000000000000000D+00 0.000000000000000D+00 0.000000000000000D+00
 0.167372080651443D+03 0.000000000000000D+00 0.000000000000000D+00 0.167372080651443D+03
 0.720067617857171D+02 0.000000000000000D+00 0.000000000000000D+00 -.720067617857171D+02
 0.351701372265952D+02 0.298257114798958D+02 0.122939494351686D+02 -.140080082289050D+02
 0.678950824819418D+02 -.396272143414102D+02 -.537251388275334D+02 0.123707544932346D+02
 0.242011134067504D+02 -.229183147421033D+02 -.760027234468090D+01 0.163725373567045D+01
 0.112112509321872D+03 0.327198176036177D+02 0.490314617370457D+02 0.953653188657256D+02
0.357116802102D-03 0.000000000000D+00 0.000000000000D+00 0.149517860100D-03 0.104886245385D-05  6 21 2 -11 11 2 21 4 0.75694047D-02 0.37684943D-01 0.82910748D+04 0.22297681D+04 0.57970817D+04 0.12833816D+01  1  2  1  1  6  1       21 0.209652470377D+02
  </mgrwgt>
  </event>
  <event npLO=' -1 ' npNLO=' 1 '>
  6     66 0.13416416E+02 0.10300495E+03 0.75467711E-02 0.12497747E+00
       21 -1    0    0  501  502 0.00000000E+00 0.00000000E+00 0.17475971E+02 0.17475971E+02 0.00000000E+00 0.0000E+00 0.9000E+01
        2 -1    0    0  502    0 -.00000000E+00 -.00000000E+00 -.83624792E+03 0.83624792E+03 0.00000000E+00 0.0000E+00 0.9000E+01
       23  2    1    2    0    0 -.75434732E+02 -.70140009E+02 -.49993378E+03 0.51866002E+03 0.92002241E+02 0.0000E+00 0.0000E+00
      -13  1    3    3    0    0 -.91934003E+02 -.76628459E+02 -.45113627E+03 0.46674159E+03 0.00000000E+00 0.0000E+00 0.9000E+01
       13  1    3    3    0    0 0.16499272E+02 0.64884502E+01 -.48797511E+02 0.51918427E+02 0.00000000E+00 0.0000E+00 0.9000E+01
        2  1    1    2  501    0 0.75434732E+02 0.70140009E+02 -.31883817E+03 0.33506387E+03 0.00000000E+00 0.0000E+00 0.9000E+01
#aMCatNLO 1  0  0  5  1 0.38084148D+02 0.00000000D+00  -5  6  0 0.00000000D+00 0.00000000D+00 0.00000000D+00 0.00000000D+00 0.00000000D+00
  <mgrwgt>
 0.4086942583D+03    7    2    0
 0.120889388980812D+03 0.000000000000000D+00 0.000000000000000D+00 0.120889388980812D+03
 0.120889388980812D+03 -.000000000000000D+00 -.000000000000000D+00 -.120889388980812D+03
 0.120319604142752D+03 -.919340033235291D+02 -.766284590492873D+02 -.123703450925783D+02
 0.180742417205033D+02 0.164992717101323D+02 0.648845015357678D+01 0.351457841155363D+01
 0.103384932098369D+03 0.754347316133967D+02 0.701400088957105D+02 0.885576668102463D+01
 0.000000000000000D+00 0.000000000000000D+00 0.000000000000000D+00 0.000000000000000D+00
 0.120889388980812D+03 0.000000000000000D+00 0.000000000000000D+00 0.120889388980812D+03
 0.120889388980812D+03 -.000000000000000D+00 -.000000000000000D+00 -.120889388980812D+03
 0.105688290973601D+03 -.812387498535009D+02 -.666838995939126D+02 -.111147607311146D+02
 0.204077298701379D+02 0.183203339344251D+02 0.818169301239884D+01 0.372836457907943D+01
 0.668764081684022D+02 0.208696262288045D+02 0.549436916584924D+02 0.319077328795581D+02
 0.488063489494819D+02 0.420487896902713D+02 0.355851492302135D+01 -.245213367275229D+02
0.584699904793D-02 0.000000000000D+00 0.000000000000D+00 0.335017867696D-03 0.000000000000D+00  6 21 2 -13 13 2 21 2 0.26886109D-02 0.12865353D+00 0.14449986D+05 0.10610020D+05 0.14534131D+05 0.12066756D+01  1  2  2  3  6  5        2 0.257288889658D+03
-.579984613081D-03 0.283870247473D-03 0.128809628628D-04 0.335017867696D-03 0.000000000000D+00  6 21 2 -13 13 2 21 4 0.26886109D-02 0.12865353D+00 0.14449986D+05 0.10610020D+05 0.14534131D+05 0.12066756D+01  1  2  3  3  6  5        2 -.427742745075D+02
0.575026384409D-03 0.000000000000D+00 0.000000000000D+00 0.335017867696D-03 0.000000000000D+00  6 21 2 -13 13 2 21 4 0.26886109D-02 0.12865353D+00 0.14449986D+05 0.10610020D+05 0.14534131D+05 0.12066756D+01  1  2 15  3  6  5        2 0.368431547152D+02
0.374534731693D-02 0.000000000000D+00 0.000000000000D+00 0.361350409289D-03 0.000000000000D+00  6 21 2 -13 13 2 21 4 0.26886109D-02 0.12865353D+00 0.12784746D+05 0.39766018D+04 0.76212549D+04 0.12532012D+01  1  2 12  3  6  5        2 0.272623044949D+03
-.348001475631D-02 0.000000000000D+00 0.000000000000D+00 0.335017867696D-03 0.000000000000D+00  6 21 2 -13 13 2 21 4 0.26886109D-02 0.12865353D+00 0.14449986D+05 0.10610020D+05 0.14534131D+05 0.12066756D+01  1  2  4  3  6  5        2 -.222971894081D+03
-.297944978468D-02 0.000000000000D+00 0.000000000000D+00 0.335017867696D-03 0.000000000000D+00  6 21 2 -13 13 2 21 4 0.26886109D-02 0.12865353D+00 0.14449986D+05 0.10610020D+05 0.14534131D+05 0.12066756D+01  1  2  5  3  6  5        2 -.190899639320D+03
0.466013947540D-02 0.000000000000D+00 -.000000000000D+00 0.335017867696D-03 0.000000000000D+00  6 21 2 -13 13 2 21 4 0.26886109D-02 0.12865353D+00 0.14449986D+05 0.10610020D+05 0.14534131D+05 0.12066756D+01  1  2  6  3  6  5        2 0.298584976867D+03
  </mgrwgt>
  </event>
  <event npLO=' -1 ' npNLO=' 1 '>
  6     66 0.13416416E+02 0.23429975E+02 0.75467711E-02 0.97214973E-01
       21 -1    0    0  501  502 0.00000000E+00 0.00000000E+00 0.58092411E+01 0.58092411E+01 0.00000000E+00 0.0000E+00 0.9000E+01
        2 -1    0    0  502    0 0.00000000E+00 0.00000000E+00 -.13461866E+04 0.13461866E+04 0.00000000E+00 0.0000E+00 0.9000E+01
       23  2    1    2    0    0 -.66953224E+01 -.22452981E+02 -.13107312E+04 0.13142088E+04 0.92626122E+02 0.0000E+00 0.0000E+00
      -11  1    3    3    0    0 -.23797191E+01 -.33791127E+02 -.16638519E+03 0.16979851E+03 0.00000000E+00 0.0000E+00 0.9000E+01
       11  1    3    3    0    0 -.43156033E+01 0.11338146E+02 -.11443460E+04 0.11444103E+04 0.00000000E+00 0.0000E+00 0.9000E+01
        2  1    1    2  501    0 0.66953224E+01 0.22452981E+02 -.29646159E+02 0.37787015E+02 0.00000000E+00 0.0000E+00 0.9000E+01
#aMCatNLO 1  0  0  1  5 0.62427007D+01 0.00000000D+00  -5  6  0 0.00000000D+00 0.00000000D+00 0.00000000D+00 0.00000000D+00 0.00000000D+00
  <mgrwgt>
 0.1347617676D+04   14    2    0
 0.884325868424904D+02 0.000000000000000D+00 0.000000000000000D+00 0.884325868424904D+02
 0.884325868424904D+02 0.000000000000000D+00 0.000000000000000D+00 -.884325868424904D+02
 0.370222168121747D+02 -.237971906267892D+01 -.337911270185036D+02 0.149379118249421D+02
 0.756649995356193D+02 -.431560328897835D+01 0.113381458139865D+02 -.746861042796999D+02
 0.641779573371869D+02 0.669532235165727D+01 0.224529812045172D+02 0.597481924547578D+02
 0.000000000000000D+00 0.000000000000000D+00 0.000000000000000D+00 0.000000000000000D+00
 0.565789065215009D+03 0.000000000000000D+00 0.000000000000000D+00 0.565789065215009D+03
 0.349057288096677D+03 0.000000000000000D+00 0.000000000000000D+00 -.349057288096677D+03
 0.169848184280510D+03 -.494282910813958D+02 -.161808864202395D+03 0.149379118249421D+02
 0.170671909089836D+03 -.603400501171170D+02 -.141102674431617D+03 -.746861042796999D+02
 0.108327122145437D+03 -.325375384769754D+02 -.842984429308219D+02 0.597481924547578D+02
 0.465999137795903D+03 0.142305879675488D+03 0.387209981564834D+03 0.216731777118333D+03
0.619288253092D-03 0.000000000000D+00 0.000000000000D+00 0.272655747908D-02 0.000000000000D+00  6 21 2 -11 11 2 21 2 0.89372941D-03 0.20710563D+00 0.12053564D+04 0.54896371D+03 0.35386725D+04 0.13670519D+01  1  2  2  1  6  1       21 0.886036849266D+02
0.607998134129D-05 0.300662798508D-04 0.136429455932D-05 0.272655747908D-02 0.000000000000D+00  6 21 2 -11 11 2 21 4 0.89372941D-03 0.20710563D+00 0.12053564D+04 0.54896371D+03 0.35386725D+04 0.13670519D+01  1  2  3  1  6  1       21 -.430422516332D+01
0.542594735578D-04 0.000000000000D+00 0.000000000000D+00 0.272655747908D-02 0.000000000000D+00  6 21 2 -11 11 2 21 4 0.89372941D-03 0.20710563D+00 0.12053564D+04 0.54896371D+03 0.35386725D+04 0.13670519D+01  1  2 15  1  6  1       21 0.145078987195D+02
0.416349653680D+01 0.000000000000D+00 -.644897964675D+00 0.272655747908D-02 0.000000000000D+00  6 21 2 -11 11 2 21 4 0.60629314D-01 0.20710563D+00 0.12053564D+04 0.54896371D+03 0.35386725D+04 0.13670519D+01  1  2  5  1  6  1       21 0.855240507565D+03
0.184996208972D+01 0.000000000000D+00 -.286526526355D+00 0.272655747908D-02 0.000000000000D+00  6 -1 2 -11 11 2 -1 4 0.60629314D-01 0.20710563D+00 0.12053564D+04 0.54896371D+03 0.35386725D+04 0.13670519D+01  1  2  5  4  6  1       21 0.427259460634D+02
0.184996208972D+01 0.000000000000D+00 -.286526526355D+00 0.272655747908D-02 0.000000000000D+00  6 -3 2 -11 11 2 -3 4 0.60629314D-01 0.20710563D+00 0.12053564D+04 0.54896371D+03 0.35386725D+04 0.13670519D+01  1  2  5  4  6  1       21 0.226257651029D+02
0.184996208972D+01 0.000000000000D+00 -.286526526355D+00 0.272655747908D-02 0.000000000000D+00  6 -5 2 -11 11 2 -5 4 0.60629314D-01 0.20710563D+00 0.12053564D+04 0.54896371D+03 0.35386725D+04 0.13670519D+01  1  2  5  4  6  1       21 0.799354447946D+01
0.184996208972D+01 0.000000000000D+00 -.286526526355D+00 0.272655747908D-02 0.000000000000D+00  6 1 2 -11 11 2 1 4 0.60629314D-01 0.20710563D+00 0.12053564D+04 0.54896371D+03 0.35386725D+04 0.13670519D+01  1  2  5  5  6  1       21 0.927623074896D+02
0.184996208972D+01 0.000000000000D+00 -.286526526355D+00 0.272655747908D-02 0.000000000000D+00  6 3 2 -11 11 2 3 4 0.60629314D-01 0.20710563D+00 0.12053564D+04 0.54896371D+03 0.35386725D+04 0.13670519D+01  1  2  5  5  6  1       21 0.242150443820D+02
0.184996208972D+01 0.000000000000D+00 -.286526526355D+00 0.272655747908D-02 0.000000000000D+00  6 5 2 -11 11 2 5 4 0.60629314D-01 0.20710563D+00 0.12053564D+04 0.54896371D+03 0.35386725D+04 0.13670519D+01  1  2  5  5  6  1       21 0.795951380383D+01
0.184996208972D+01 0.000000000000D+00 -.286526526355D+00 0.272655747908D-02 0.000000000000D+00  6 -2 2 -11 11 2 -2 4 0.60629314D-01 0.20710563D+00 0.12053564D+04 0.54896371D+03 0.35386725D+04 0.13670519D+01  1  2  5  6  6  1       21 0.350237591646D+02
0.184996208972D+01 0.000000000000D+00 -.286526526355D+00 0.272655747908D-02 0.000000000000D+00  6 2 2 -11 11 2 2 4 0.60629314D-01 0.20710563D+00 0.12053564D+04 0.54896371D+03 0.35386725D+04 0.13670519D+01  1  2  5  7  6  1       21 0.134361525125D+03
0.184996208972D+01 0.000000000000D+00 -.286526526355D+00 0.272655747908D-02 0.000000000000D+00  6 -4 2 -11 11 2 -4 4 0.60629314D-01 0.20710563D+00 0.12053564D+04 0.54896371D+03 0.35386725D+04 0.13670519D+01  1  2  5  8  6  1       21 0.130018132382D+02
0.184996208972D+01 0.000000000000D+00 -.286526526355D+00 0.272655747908D-02 0.000000000000D+00  6 4 2 -11 11 2 4 4 0.60629314D-01 0.20710563D+00 0.12053564D+04 0.54896371D+03 0.35386725D+04 0.13670519D+01  1  2  5  9  6  1       21 0.129005907857D+02
  </mgrwgt>
  </event>
  <event npLO=' -1 ' npNLO=' 1 '>
  6     66 0.13416416E+02 0.90882907E+02 0.75467711E-02 0.11670738E+00
       21 -1    0    0  501  502 0.00000000E+00 0.00000000E+00 0.20502338E+02 0.20502338E+02 0.00000000E+00 0.0000E+00 0.9000E+01
        2 -1    0    0  502    0 0.00000000E+00 0.00000000E+00 -.77262940E+03 0.77262940E+03 0.00000000E+00 0.0000E+00 0.9000E+01
       23  2    1    2    0    0 -.66913624E+02 0.61500160E+02 -.23342415E+03 0.26652713E+03 0.91050395E+02 0.0000E+00 0.0000E+00
      -11  1    3    3    0    0 -.26672286E+02 0.91584276E-02 -.57478829E+01 0.27284594E+02 0.00000000E+00 0.0000E+00 0.9000E+01
       11  1    3    3    0    0 -.40241339E+02 0.61491001E+02 -.22767626E+03 0.23924253E+03 0.00000000E+00 0.0000E+00 0.9000E+01
        2  1    1    2  501    0 0.66913624E+02 -.61500160E+02 -.51870291E+03 0.52660461E+03 0.00000000E+00 0.0000E+00 0.9000E+01
#aMCatNLO 1  0  0  2  1 0.40237734D+02 0.00000000D+00  -5  6  0 0.00000000D+00 0.00000000D+00 0.00000000D+00 0.00000000D+00 0.00000000D+00
  <mgrwgt>
 0.2321753456D+03    9    2    0
 0.125859879940516D+03 0.000000000000000D+00 0.000000000000000D+00 0.125859879940516D+03
 0.125859879940516D+03 0.000000000000000D+00 0.000000000000000D+00 -.125859879940516D+03
 0.687953106878474D+02 -.266722856691231D+02 0.915842759925667D-02 0.634143821695469D+02
 0.735316403897357D+02 -.402413385862943D+02 0.614910010829472D+02 -.252855551760544D+01
 0.109392808803450D+03 0.669136242554174D+02 -.615001595105465D+02 -.608858266519414D+02
 0.000000000000000D+00 0.000000000000000D+00 -.000000000000000D+00 -.000000000000000D+00
 0.136645887158789D+03 0.000000000000000D+00 0.000000000000000D+00 0.136645887158789D+03
 0.158055012134715D+03 0.000000000000000D+00 0.000000000000000D+00 -.158055012134715D+03
 0.714644598835881D+02 -.319692820380233D+02 0.798437013677052D+01 0.634143821695469D+02
 0.842992979937871D+02 -.462019208980401D+02 0.704653145495779D+02 -.252855551760544D+01
 0.983126756960172D+02 0.590694990817349D+02 -.496899647177668D+02 -.608858266519414D+02
 0.406244657201116D+02 0.191017038543285D+02 -.287597199685816D+02 -.214091249759261D+02
0.965493410263D-03 0.000000000000D+00 0.000000000000D+00 0.257412787933D-03 0.000000000000D+00  6 21 2 -11 11 2 21 2 0.31542059D-02 0.11886606D+00 0.91243900D+04 0.82597110D+04 0.12048276D+05 0.12180349D+01  1  2  2  2  6  2        2 0.368828656067D+02
-.121634211161D-03 0.468744480815D-04 0.212698593927D-05 0.257412787933D-03 0.000000000000D+00  6 21 2 -11 11 2 21 4 0.31542059D-02 0.11886606D+00 0.91243900D+04 0.82597110D+04 0.12048276D+05 0.12180349D+01  1  2  3  2  6  2        2 -.712466027363D+01
0.901685965323D-04 0.000000000000D+00 0.000000000000D+00 0.257412787933D-03 0.000000000000D+00  6 21 2 -11 11 2 21 4 0.31542059D-02 0.11886606D+00 0.91243900D+04 0.82597110D+04 0.12048276D+05 0.12180349D+01  1  2 15  2  6  2        2 0.511034391005D+01
0.329558017171D-02 0.000000000000D+00 0.000000000000D+00 0.249555702428D-03 0.000000000000D+00  6 21 2 -11 11 2 21 4 0.31542059D-02 0.16206457D+00 0.13102000D+05 0.12531083D+05 0.16296232D+05 0.11993016D+01  1  2 12  2  6  2        2 0.119574314128D+03
-.652284333079D-03 0.000000000000D+00 0.000000000000D+00 0.257412787933D-03 0.000000000000D+00  6 21 2 -11 11 2 21 4 0.31542059D-02 0.11886606D+00 0.91243900D+04 0.82597110D+04 0.12048276D+05 0.12180349D+01  1  2  4  2  6  2        2 -.369684945465D+02
-.546876296966D-02 0.000000000000D+00 -.173215359271D-02 0.257412787933D-03 0.000000000000D+00  6 21 2 -11 11 2 21 4 0.31542059D-02 0.15716950D+00 0.91243900D+04 0.82597110D+04 0.12048276D+05 0.12180349D+01  1  2  5  2  6  2        2 -.237764815273D+03
0.579066867240D-02 0.000000000000D+00 0.166670822597D-02 0.257412787933D-03 0.000000000000D+00  6 21 2 -11 11 2 21 4 0.31542059D-02 0.11886606D+00 0.91243900D+04 0.82597110D+04 0.12048276D+05 0.12180349D+01  1  2  6  2  6  2        2 0.354446118296D+03
0.130441967359D-03 0.000000000000D+00 0.000000000000D+00 0.254459602422D-03 0.000000000000D+00  6 21 21 -11 11 2 -2 4 0.31542059D-02 0.16206457D+00 0.13102000D+05 0.96310986D+04 0.13456984D+05 0.12110278D+01  1  2 12 10  6  2        2 0.340109365787D+01
-.166017782094D-03 0.000000000000D+00 -.635807412552D-04 0.257412807392D-03 0.000000000000D+00  6 21 21 -11 11 2 -2 4 0.31542059D-02 0.15716950D+00 0.91243900D+04 0.82597027D+04 0.12048271D+05 0.12180350D+01  1  2  5 10  6  2        2 -.538141989971D+01
  </mgrwgt>
  </event>
  <event npLO=' -1 ' npNLO=' 1 '>
  6     66 0.13416416E+02 0.99131919E+02 0.75467711E-02 0.10143195E+00
       21 -1    0    0  501  502 0.00000000E+00 0.00000000E+00 0.13760629E+02 0.13760629E+02 0.00000000E+00 0.0000E+00 0.9000E+01
        2 -1    0    0  502    0 0.00000000E+00 0.00000000E+00 -.12510602E+04 0.12510602E+04 0.00000000E+00 0.0000E+00 0.9000E+01
       23  2    1    2    0    0 -.38602957E+02 0.91306895E+02 -.39753345E+03 0.41922383E+03 0.88818036E+02 0.0000E+00 0.0000E+00
      -13  1    3    3    0    0 -.17775247E+02 0.22030070E+02 -.27848416E+03 0.27991911E+03 0.00000000E+00 0.0000E+00 0.9000E+01
       13  1    3    3    0    0 -.20827710E+02 0.69276825E+02 -.11904929E+03 0.13930472E+03 0.00000000E+00 0.0000E+00 0.9000E+01
        2  1    1    2  501    0 0.38602957E+02 -.91306895E+02 -.83976610E+03 0.84559698E+03 0.00000000E+00 0.0000E+00 0.9000E+01
#aMCatNLO 1  0  0  1  5 0.38283654D+03 0.00000000D+00  -5  6  0 0.00000000D+00 0.00000000D+00 0.00000000D+00 0.00000000D+00 0.00000000D+00
  <mgrwgt>
 0.1374723722D+03   14    2    0
 0.131207376104819D+03 0.000000000000000D+00 0.000000000000000D+00 0.131207376104819D+03
 0.131207376104819D+03 0.000000000000000D+00 0.000000000000000D+00 -.131207376104819D+03
 0.361229508651526D+02 -.177752473274508D+02 0.220300702510077D+02 -.224406810589574D+02
 0.110115294158726D+03 -.208277100327275D+02 0.692768249256243D+02 0.830199134586387D+02
 0.116176507185759D+03 0.386029573601783D+02 -.913068951766320D+02 -.605792323996813D+02
 0.000000000000000D+00 0.000000000000000D+00 -.000000000000000D+00 0.000000000000000D+00
 0.328296076828583D+03 0.000000000000000D+00 0.000000000000000D+00 0.328296076828583D+03
 0.322407560149445D+03 0.000000000000000D+00 0.000000000000000D+00 -.322407560149445D+03
 0.792472041580251D+02 -.607746858301399D+02 0.456395964346930D+02 -.224406810589574D+02
 0.212280286098818D+03 -.140987286173004D+03 0.135252352929949D+03 0.830199134586387D+02
 0.867107911603698D+02 -.370148651733745D+02 -.497877260147477D+02 -.605792323996813D+02
 0.272465355560815D+03 0.238776837176519D+03 -.131104223349894D+03 0.588851667913856D+01
0.151072014869D-02 0.000000000000D+00 0.000000000000D+00 0.753395185089D-04 0.000000000000D+00  6 21 2 -13 13 2 21 2 0.21170199D-02 0.19247080D+00 0.99778966D+04 0.98271473D+04 0.13482996D+05 0.12101178D+01  1  2  2  1  6  1       21 0.557938016826D+02
-.189657347031D-03 0.733450611085D-04 0.332812267830D-05 0.753395185089D-04 0.000000000000D+00  6 21 2 -13 13 2 21 4 0.21170199D-02 0.19247080D+00 0.99778966D+04 0.98271473D+04 0.13482996D+05 0.12101178D+01  1  2  3  1  6  1       21 -.102633540346D+02
0.133800625312D-03 0.000000000000D+00 0.000000000000D+00 0.753395185089D-04 0.000000000000D+00  6 21 2 -13 13 2 21 4 0.21170199D-02 0.19247080D+00 0.99778966D+04 0.98271473D+04 0.13482996D+05 0.12101178D+01  1  2 15  1  6  1       21 0.723628039956D+01
0.378489284637D-01 0.000000000000D+00 -.176647973389D-01 0.753395185089D-04 0.000000000000D+00  6 21 2 -13 13 2 21 4 0.15912034D-01 0.19247080D+00 0.99778966D+04 0.98271473D+04 0.13482996D+05 0.12101178D+01  1  2  5  1  6  1       21 0.660486893729D+02
0.164405663054D-01 0.000000000000D+00 -.761695670996D-02 0.753395185089D-04 0.000000000000D+00  6 -1 2 -13 13 2 -1 4 0.15912034D-01 0.19247080D+00 0.99778966D+04 0.98271473D+04 0.13482996D+05 0.12101178D+01  1  2  5  4  6  1       21 0.228937568691D+01
0.164405663054D-01 0.000000000000D+00 -.761695670996D-02 0.753395185089D-04 0.000000000000D+00  6 -3 2 -13 13 2 -3 4 0.15912034D-01 0.19247080D+00 0.99778966D+04 0.98271473D+04 0.13482996D+05 0.12101178D+01  1  2  5  4  6  1       21 0.181171217435D+01
0.164405663054D-01 0.000000000000D+00 -.761695670996D-02 0.753395185089D-04 0.000000000000D+00  6 -5 2 -13 13 2 -5 4 0.15912034D-01 0.19247080D+00 0.99778966D+04 0.98271473D+04 0.13482996D+05 0.12101178D+01  1  2  5  4  6  1       21 0.821751639613D+00
0.164405663054D-01 0.000000000000D+00 -.761695670996D-02 0.753395185089D-04 0.000000000000D+00  6 1 2 -13 13 2 1 4 0.15912034D-01 0.19247080D+00 0.99778966D+04 0.98271473D+04 0.13482996D+05 0.12101178D+01  1  2  5  5  6  1       21 0.300454497500D+01
0.164405663054D-01 0.000000000000D+00 -.761695670996D-02 0.753395185089D-04 0.000000000000D+00  6 3 2 -13 13 2 3 4 0.15912034D-01 0.19247080D+00 0.99778966D+04 0.98271473D+04 0.13482996D+05 0.12101178D+01  1  2  5  5  6  1       21 0.181463466097D+01
0.164405663054D-01 0.000000000000D+00 -.761695670996D-02 0.753395185089D-04 0.000000000000D+00  6 5 2 -13 13 2 5 4 0.15912034D-01 0.19247080D+00 0.99778966D+04 0.98271473D+04 0.13482996D+05 0.12101178D+01  1  2  5  5  6  1       21 0.820648738099D+00
0.164405663054D-01 0.000000000000D+00 -.761695670996D-02 0.753395185089D-04 0.000000000000D+00  6 -2 2 -13 13 2 -2 4 0.15912034D-01 0.19247080D+00 0.99778966D+04 0.98271473D+04 0.13482996D+05 0.12101178D+01  1  2  5  6  6  1       21 0.215255449402D+01
0.164405663054D-01 0.000000000000D+00 -.761695670996D-02 0.753395185089D-04 0.000000000000D+00  6 2 2 -13 13 2 2 4 0.15912034D-01 0.19247080D+00 0.99778966D+04 0.98271473D+04 0.13482996D+05 0.12101178D+01  1  2  5  7  6  1       21 0.353446079297D+01
0.164405663054D-01 0.000000000000D+00 -.761695670996D-02 0.753395185089D-04 0.000000000000D+00  6 -4 2 -13 13 2 -4 4 0.15912034D-01 0.19247080D+00 0.99778966D+04 0.98271473D+04 0.13482996D+05 0.12101178D+01  1  2  5  8  6  1       21 0.120517826299D+01
0.164405663054D-01 0.000000000000D+00 -.761695670996D-02 0.753395185089D-04 0.000000000000D+00  6 4 2 -13 13 2 4 4 0.15912034D-01 0.19247080D+00 0.99778966D+04 0.98271473D+04 0.13482996D+05 0.12101178D+01  1  2  5  9  6  1       21 0.120209338941D+01
  </mgrwgt>
  </event>
  <event npLO=' -1 ' npNLO=' 1 '>
  6     66 0.13416416E+02 0.12371971E+02 0.75467711E-02 0.17098847E+00
       21 -1    0    0  501  502 0.00000000E+00 0.00000000E+00 0.39589680E+02 0.39589680E+02 0.00000000E+00 0.0000E+00 0.9000E+01
        4 -1    0    0  502    0 0.00000000E+00 0.00000000E+00 -.66550606E+02 0.66550606E+02 0.00000000E+00 0.0000E+00 0.9000E+01
       23  2    1    2    0    0 0.45557048E+01 0.11502662E+02 -.29281589E+02 0.93552548E+02 0.87986374E+02 0.0000E+00 0.0000E+00
      -11  1    3    3    0    0 -.13563787E+02 -.14571827E+02 -.51223944E+02 0.54956409E+02 0.00000000E+00 0.0000E+00 0.9000E+01
       11  1    3    3    0    0 0.18119492E+02 0.26074488E+02 0.21942355E+02 0.38596138E+02 0.00000000E+00 0.0000E+00 0.9000E+01
        4  1    1    2  501    0 -.45557048E+01 -.11502662E+02 0.23206627E+01 0.12587738E+02 0.00000000E+00 0.0000E+00 0.9000E+01
#aMCatNLO 1  0  0  2  1 0.80860198D+01 0.00000000D+00  -5  6  0 0.00000000D+00 0.00000000D+00 0.00000000D+00 0.00000000D+00 0.00000000D+00
  <mgrwgt>
 0.7422843685D+03   11    2    0
 0.513294961874075D+02 0.000000000000000D+00 0.000000000000000D+00 0.513294961874075D+02
 0.513294961874075D+02 0.000000000000000D+00 0.000000000000000D+00 -.513294961874075D+02
 0.433673066938461D+02 -.135637873627238D+02 -.145718266235546D+02 -.385280265665138D+02
 0.456676154076789D+02 0.181194921202882D+02 0.260744883815812D+02 0.328227993621092D+02
 0.136240702732899D+02 -.455570475756439D+01 -.115026617580266D+02 0.570522720440460D+01
 0.000000000000000D+00 -.000000000000000D+00 -.000000000000000D+00 -.000000000000000D+00
 0.534266280740079D+02 0.000000000000000D+00 0.000000000000000D+00 0.534266280740079D+02
 0.575737061835411D+02 0.000000000000000D+00 0.000000000000000D+00 -.575737061835411D+02
 0.421855834229510D+02 -.123598799621845D+02 -.119351575165623D+02 -.385280265665138D+02
 0.478921537149828D+02 0.194360729895697D+02 0.289579228578015D+02 0.328227993621092D+02
 0.128171992451063D+02 -.418362100902715D+01 -.106877637645908D+02 0.570522720440460D+01
 0.810539787450901D+01 -.289257201835811D+01 -.633500157664840D+01 -.414707810953317D+01
0.691581313750D-03 0.000000000000D+00 0.000000000000D+00 0.351686783338D-03 0.000000000000D+00  6 21 4 -11 11 4 21 2 0.60907200D-02 0.10238555D-01 0.10250148D+04 0.15306567D+03 0.25615702D+04 0.14603013D+01  1  2  2  2  6  2        4 0.751903012636D+02
0.194777011449D-04 0.335760887034D-04 0.152355646820D-05 0.351686783338D-03 0.000000000000D+00  6 21 4 -11 11 4 21 4 0.60907200D-02 0.10238555D-01 0.10250148D+04 0.15306567D+03 0.25615702D+04 0.14603013D+01  1  2  3  2  6  2        4 -.996366769964D+01
0.440746874293D-04 0.000000000000D+00 0.000000000000D+00 0.351686783338D-03 0.000000000000D+00  6 21 4 -11 11 4 21 4 0.60907200D-02 0.10238555D-01 0.10250148D+04 0.15306567D+03 0.25615702D+04 0.14603013D+01  1  2 15  2  6  2        4 0.102186316267D+02
0.449083138472D-02 0.000000000000D+00 0.000000000000D+00 0.354362536468D-03 0.000000000000D+00  6 21 4 -11 11 4 21 4 0.60907200D-02 0.11953267D-01 0.12425333D+04 0.14299520D+03 0.25378076D+04 0.14658460D+01  1  2 12  2  6  2        4 0.814560125262D+03
-.630023837568D-03 0.000000000000D+00 0.000000000000D+00 0.351686783338D-03 0.000000000000D+00  6 21 4 -11 11 4 21 4 0.60907200D-02 0.10238555D-01 0.10250148D+04 0.15306567D+03 0.25615702D+04 0.14603013D+01  1  2  4  2  6  2        4 -.146069816660D+03
-.940057057482D-02 0.000000000000D+00 -.232820504826D-02 0.351686783338D-03 0.000000000000D+00  6 21 4 -11 11 4 21 4 0.60907200D-02 0.11933400D-01 0.10250148D+04 0.15306567D+03 0.25615702D+04 0.14603013D+01  1  2  5  2  6  2        4 -.206870215920D+04
0.967057816699D-02 0.000000000000D+00 0.230115469852D-02 0.351686783338D-03 0.000000000000D+00  6 21 4 -11 11 4 21 4 0.60907200D-02 0.10238555D-01 0.10250148D+04 0.15306567D+03 0.25615702D+04 0.14603013D+01  1  2  6  2  6  2        4 0.273076151077D+04
0.229191289945D-05 0.000000000000D+00 0.000000000000D+00 0.351686783338D-03 0.971136048384D-04  6 21 4 -11 11 4 21 4 0.63395641D-02 0.11484070D-01 0.12425333D+04 0.14299520D+03 0.25378076D+04 0.14658460D+01  1  2 11  2  6  2        4 0.417548493062D+00
0.105102338961D-03 0.000000000000D+00 0.000000000000D+00 0.354362536468D-03 0.000000000000D+00  6 21 21 -11 11 4 -4 4 0.60907200D-02 0.11953267D-01 0.12425333D+04 0.14299520D+03 0.25378076D+04 0.14658460D+01  1  2 12 10  6  2        4 0.489934299531D+03
-.201323793768D-03 0.000000000000D+00 -.540166731363D-04 0.351686744321D-03 0.000000000000D+00  6 21 21 -11 11 4 -4 4 0.60907200D-02 0.11933400D-01 0.10250148D+04 0.15306583D+03 0.25615705D+04 0.14603012D+01  1  2  5 10  6  2        4 -.115547703314D+04
0.302566070427D-06 0.000000000000D+00 0.000000000000D+00 0.351686744321D-03 0.187404535999D-05  6 21 21 -11 11 4 -4 4 0.63395641D-02 0.11484070D-01 0.12425333D+04 0.14299520D+03 0.25378076D+04 0.14658460D+01  1  2 11 10  6  2        4 0.141462821267D+01
  </mgrwgt>
  </event>
  <event npLO=' -1 ' npNLO=' 1 '>
  6     66 0.13416416E+02 0.58650253E+02 0.75467711E-02 0.12841523E+00
       21 -1    0    0  501  502 0.00000000E+00 0.00000000E+00 0.72381588E+01 0.72381588E+01 0.00000000E+00 0.0000E+00 0.9000E+01
        2 -1    0    0  502    0 0.00000000E+00 0.00000000E+00 -.26787024E+04 0.26787024E+04 0.00000000E+00 0.0000E+00 0.9000E+01
       23  2    1    2    0    0 -.13290930E+02 0.57124455E+02 -.25363266E+04 0.25386244E+04 0.90673280E+02 0.0000E+00 0.0000E+00
      -11  1    3    3    0    0 0.37023566E+02 0.37165702E+02 -.10451172E+04 0.10464330E+04 0.00000000E+00 0.0000E+00 0.9000E+01
       11  1    3    3    0    0 -.50314495E+02 0.19958753E+02 -.14912094E+04 0.14921914E+04 0.00000000E+00 0.0000E+00 0.9000E+01
        2  1    1    2  501    0 0.13290930E+02 -.57124455E+02 -.13513762E+03 0.14731608E+03 0.00000000E+00 0.0000E+00 0.9000E+01
#aMCatNLO 1  0  0  1  2 0.17273421D+02 0.00000000D+00  -5  6  0 0.00000000D+00 0.00000000D+00 0.00000000D+00 0.00000000D+00 0.00000000D+00
  <mgrwgt>
 0.1943594198D+03   38    2    0
 0.139243933984500D+03 0.000000000000000D+00 0.000000000000000D+00 0.139243933984500D+03
 0.139243933984500D+03 0.000000000000000D+00 0.000000000000000D+00 -.139243933984500D+03
 0.670175460731773D+02 0.370235655594262D+02 0.371657017188400D+02 -.417051278703653D+02
 0.869876121065239D+02 -.503144951261732D+02 0.199587529706488D+02 -.680951130408782D+02
 0.124482709789299D+03 0.132909295667470D+02 -.571244546894889D+02 0.109800240911244D+03
 0.000000000000000D+00 -.000000000000000D+00 0.000000000000000D+00 0.000000000000000D+00
 0.149052905407065D+03 0.000000000000000D+00 0.000000000000000D+00 0.149052905407065D+03
 0.144448953911741D+03 0.000000000000000D+00 0.000000000000000D+00 -.144448953911741D+03
 0.664418695623274D+02 0.387184578032052D+02 0.342941010320321D+02 -.417051278703653D+02
 0.849581013631903D+02 -.481308391081761D+02 0.162590557515194D+02 -.680951130408782D+02
 0.127435805515604D+03 0.164902147998002D+02 -.625448993851626D+02 0.109800240911244D+03
 0.146660828776848D+02 -.707783349482933D+01 0.119917426016111D+02 0.460395149532411D+01
0.190931203428D-02 0.000000000000D+00 0.000000000000D+00 0.172424474114D-02 0.000000000000D+00  6 21 2 -11 11 2 21 2 0.11135629D-02 0.41210806D+00 0.68259517D+04 0.34398521D+04 0.69421106D+04 0.12605568D+01  1  2  2  1  6  1       21 0.348487342480D+02
-.127771860325D-04 0.926965910602D-04 0.420622223564D-05 0.172424474114D-02 0.000000000000D+00  6 21 2 -11 11 2 21 4 0.11135629D-02 0.41210806D+00 0.68259517D+04 0.34398521D+04 0.69421106D+04 0.12605568D+01  1  2  3  1  6  1       21 -.221090127496D+01
0.185343898847D-03 0.000000000000D+00 0.000000000000D+00 0.172424474114D-02 0.000000000000D+00  6 21 2 -11 11 2 21 4 0.11135629D-02 0.41210806D+00 0.68259517D+04 0.34398521D+04 0.69421106D+04 0.12605568D+01  1  2 15  1  6  1       21 0.537543042232D+01
0.288594594680D-02 0.000000000000D+00 0.000000000000D+00 0.175105764083D-02 0.000000000000D+00  6 21 2 -11 11 2 21 4 0.12365652D-02 0.41210806D+00 0.82022207D+04 0.28492933D+04 0.62882753D+04 0.12703202D+01  1  2 12  1  6  1       21 0.738764805030D+02
0.288594594680D-02 0.000000000000D+00 0.000000000000D+00 0.175105764083D-02 0.000000000000D+00  6 21 2 -11 11 2 21 4 0.12365652D-02 0.41210806D+00 0.82022207D+04 0.28492933D+04 0.62882753D+04 0.12703202D+01  1  2 12  1  6  1       21 0.738764805030D+02
-.223787064674D-02 0.000000000000D+00 0.000000000000D+00 0.172424474114D-02 0.000000000000D+00  6 21 2 -11 11 2 21 4 0.11135629D-02 0.41210806D+00 0.68259517D+04 0.34398521D+04 0.69421106D+04 0.12605568D+01  1  2  4  1  6  1       21 -.649037709392D+02
-.161369833364D-01 0.000000000000D+00 -.406471244888D-02 0.172424474114D-02 0.000000000000D+00  6 21 2 -11 11 2 21 4 0.12523294D-02 0.41210806D+00 0.68259517D+04 0.34398521D+04 0.69421106D+04 0.12605568D+01  1  2  5  1  6  1       21 -.395083879748D+03
0.161780493600D-01 0.000000000000D+00 0.395474295316D-02 0.172424474114D-02 0.000000000000D+00  6 21 2 -11 11 2 21 4 0.11135629D-02 0.41210806D+00 0.68259517D+04 0.34398521D+04 0.69421106D+04 0.12605568D+01  1  2  6  1  6  1       21 0.471138764240D+03
0.777272563342D-04 0.000000000000D+00 0.000000000000D+00 0.175105764083D-02 0.000000000000D+00  6 -1 2 -11 11 2 -1 4 0.12365652D-02 0.41210806D+00 0.82022207D+04 0.28492933D+04 0.62882753D+04 0.12703202D+01  1  2 12  4  6  1       21 0.105270677416D+00
0.777272563342D-04 0.000000000000D+00 0.000000000000D+00 0.175105764083D-02 0.000000000000D+00  6 -3 2 -11 11 2 -3 4 0.12365652D-02 0.41210806D+00 0.82022207D+04 0.28492933D+04 0.62882753D+04 0.12703202D+01  1  2 12  4  6  1       21 0.986112934395D-01
0.777272563342D-04 0.000000000000D+00 0.000000000000D+00 0.175105764083D-02 0.000000000000D+00  6 -5 2 -11 11 2 -5 4 0.12365652D-02 0.41210806D+00 0.82022207D+04 0.28492933D+04 0.62882753D+04 0.12703202D+01  1  2 12  4  6  1       21 0.564794666653D-01
0.777272563342D-04 0.000000000000D+00 0.000000000000D+00 0.175105764083D-02 0.000000000000D+00  6 -1 2 -11 11 2 -1 4 0.12365652D-02 0.41210806D+00 0.82022207D+04 0.28492933D+04 0.62882753D+04 0.12703202D+01  1  2 12  4  6  1       21 0.105270677416D+00
0.777272563342D-04 0.000000000000D+00 0.000000000000D+00 0.175105764083D-02 0.000000000000D+00  6 -3 2 -11 11 2 -3 4 0.12365652D-02 0.41210806D+00 0.82022207D+04 0.28492933D+04 0.62882753D+04 0.12703202D+01  1  2 12  4  6  1       21 0.986112934395D-01
0.777272563342D-04 0.000000000000D+00 0.000000000000D+00 0.175105764083D-02 0.000000000000D+00  6 -5 2 -11 11 2 -5 4 0.12365652D-02 0.41210806D+00 0.82022207D+04 0.28492933D+04 0.62882753D+04 0.12703202D+01  1  2 12  4  6  1       21 0.564794666653D-01
-.391968049181D-03 0.000000000000D+00 -.124674968158D-03 0.172424474114D-02 0.000000000000D+00  6 -1 2 -11 11 2 -1 4 0.12523294D-02 0.41210806D+00 0.68259517D+04 0.34398521D+04 0.69421106D+04 0.12605568D+01  1  2  5  4  6  1       21 -.508707471034D+00
-.391968049181D-03 0.000000000000D+00 -.124674968158D-03 0.172424474114D-02 0.000000000000D+00  6 -3 2 -11 11 2 -3 4 0.12523294D-02 0.41210806D+00 0.68259517D+04 0.34398521D+04 0.69421106D+04 0.12605568D+01  1  2  5  4  6  1       21 -.476665797661D+00
-.391968049181D-03 0.000000000000D+00 -.124674968158D-03 0.172424474114D-02 0.000000000000D+00  6 -5 2 -11 11 2 -5 4 0.12523294D-02 0.41210806D+00 0.68259517D+04 0.34398521D+04 0.69421106D+04 0.12605568D+01  1  2  5  4  6  1       21 -.274667368302D+00
0.777272563342D-04 0.000000000000D+00 0.000000000000D+00 0.175105764083D-02 0.000000000000D+00  6 1 2 -11 11 2 1 4 0.12365652D-02 0.41210806D+00 0.82022207D+04 0.28492933D+04 0.62882753D+04 0.12703202D+01  1  2 12  5  6  1       21 0.109219746380D+00
0.777272563342D-04 0.000000000000D+00 0.000000000000D+00 0.175105764083D-02 0.000000000000D+00  6 3 2 -11 11 2 3 4 0.12365652D-02 0.41210806D+00 0.82022207D+04 0.28492933D+04 0.62882753D+04 0.12703202D+01  1  2 12  5  6  1       21 0.984282609250D-01
0.777272563342D-04 0.000000000000D+00 0.000000000000D+00 0.175105764083D-02 0.000000000000D+00  6 5 2 -11 11 2 5 4 0.12365652D-02 0.41210806D+00 0.82022207D+04 0.28492933D+04 0.62882753D+04 0.12703202D+01  1  2 12  5  6  1       21 0.564816409815D-01
0.777272563342D-04 0.000000000000D+00 0.000000000000D+00 0.175105764083D-02 0.000000000000D+00  6 1 2 -11 11 2 1 4 0.12365652D-02 0.41210806D+00 0.82022207D+04 0.28492933D+04 0.62882753D+04 0.12703202D+01  1  2 12  5  6  1       21 0.109219746380D+00
0.777272563342D-04 0.000000000000D+00 0.000000000000D+00 0.175105764083D-02 0.000000000000D+00  6 3 2 -11 11 2 3 4 0.12365652D-02 0.41210806D+00 0.82022207D+04 0.28492933D+04 0.62882753D+04 0.12703202D+01  1  2 12  5  6  1       21 0.984282609250D-01
0.777272563342D-04 0.000000000000D+00 0.000000000000D+00 0.175105764083D-02 0.000000000000D+00  6 5 2 -11 11 2 5 4 0.12365652D-02 0.41210806D+00 0.82022207D+04 0.28492933D+04 0.62882753D+04 0.12703202D+01  1  2 12  5  6  1       21 0.564816409815D-01
-.391968049181D-03 0.000000000000D+00 -.124674968158D-03 0.172424474114D-02 0.000000000000D+00  6 1 2 -11 11 2 1 4 0.12523294D-02 0.41210806D+00 0.68259517D+04 0.34398521D+04 0.69421106D+04 0.12605568D+01  1  2  5  5  6  1       21 -.527892156929D+00
-.391968049181D-03 0.000000000000D+00 -.124674968158D-03 0.172424474114D-02 0.000000000000D+00  6 3 2 -11 11 2 3 4 0.12523294D-02 0.41210806D+00 0.68259517D+04 0.34398521D+04 0.69421106D+04 0.12605568D+01  1  2  5  5  6  1       21 -.475790040528D+00
-.391968049181D-03 0.000000000000D+00 -.124674968158D-03 0.172424474114D-02 0.000000000000D+00  6 5 2 -11 11 2 5 4 0.12523294D-02 0.41210806D+00 0.68259517D+04 0.34398521D+04 0.69421106D+04 0.12605568D+01  1  2  5  5  6  1       21 -.274677335446D+00
0.777272563342D-04 0.000000000000D+00 0.000000000000D+00 0.175105764083D-02 0.000000000000D+00  6 -2 2 -11 11 2 -2 4 0.12365652D-02 0.41210806D+00 0.82022207D+04 0.28492933D+04 0.62882753D+04 0.12703202D+01  1  2 12  6  6  1       21 0.105585701269D+00
0.777272563342D-04 0.000000000000D+00 0.000000000000D+00 0.175105764083D-02 0.000000000000D+00  6 -2 2 -11 11 2 -2 4 0.12365652D-02 0.41210806D+00 0.82022207D+04 0.28492933D+04 0.62882753D+04 0.12703202D+01  1  2 12  6  6  1       21 0.105585701269D+00
-.391968049181D-03 0.000000000000D+00 -.124674968158D-03 0.172424474114D-02 0.000000000000D+00  6 -2 2 -11 11 2 -2 4 0.12523294D-02 0.41210806D+00 0.68259517D+04 0.34398521D+04 0.69421106D+04 0.12605568D+01  1  2  5  6  6  1       21 -.510165190501D+00
0.777272563342D-04 0.000000000000D+00 0.000000000000D+00 0.175105764083D-02 0.000000000000D+00  6 2 2 -11 11 2 2 4 0.12365652D-02 0.41210806D+00 0.82022207D+04 0.28492933D+04 0.62882753D+04 0.12703202D+01  1  2 12  7  6  1       21 0.112098733092D+00
0.777272563342D-04 0.000000000000D+00 0.000000000000D+00 0.175105764083D-02 0.000000000000D+00  6 2 2 -11 11 2 2 4 0.12365652D-02 0.41210806D+00 0.82022207D+04 0.28492933D+04 0.62882753D+04 0.12703202D+01  1  2 12  7  6  1       21 0.112098733092D+00
-.391968049181D-03 0.000000000000D+00 -.124674968158D-03 0.172424474114D-02 0.000000000000D+00  6 2 2 -11 11 2 2 4 0.12523294D-02 0.41210806D+00 0.68259517D+04 0.34398521D+04 0.69421106D+04 0.12605568D+01  1  2  5  7  6  1       21 -.541846737840D+00
0.777272563342D-04 0.000000000000D+00 0.000000000000D+00 0.175105764083D-02 0.000000000000D+00  6 -4 2 -11 11 2 -4 4 0.12365652D-02 0.41210806D+00 0.82022207D+04 0.28492933D+04 0.62882753D+04 0.12703202D+01  1  2 12  8  6  1       21 0.795245240338D-01
0.777272563342D-04 0.000000000000D+00 0.000000000000D+00 0.175105764083D-02 0.000000000000D+00  6 -4 2 -11 11 2 -4 4 0.12365652D-02 0.41210806D+00 0.82022207D+04 0.28492933D+04 0.62882753D+04 0.12703202D+01  1  2 12  8  6  1       21 0.795245240338D-01
-.391968049181D-03 0.000000000000D+00 -.124674968158D-03 0.172424474114D-02 0.000000000000D+00  6 -4 2 -11 11 2 -4 4 0.12523294D-02 0.41210806D+00 0.68259517D+04 0.34398521D+04 0.69421106D+04 0.12605568D+01  1  2  5  8  6  1       21 -.384969518719D+00
0.777272563342D-04 0.000000000000D+00 0.000000000000D+00 0.175105764083D-02 0.000000000000D+00  6 4 2 -11 11 2 4 4 0.12365652D-02 0.41210806D+00 0.82022207D+04 0.28492933D+04 0.62882753D+04 0.12703202D+01  1  2 12  9  6  1       21 0.795308113152D-01
0.777272563342D-04 0.000000000000D+00 0.000000000000D+00 0.175105764083D-02 0.000000000000D+00  6 4 2 -11 11 2 4 4 0.12365652D-02 0.41210806D+00 0.82022207D+04 0.28492933D+04 0.62882753D+04 0.12703202D+01  1  2 12  9  6  1       21 0.795308113152D-01
-.391968049181D-03 0.000000000000D+00 -.124674968158D-03 0.172424474114D-02 0.000000000000D+00  6 4 2 -11 11 2 4 4 0.12523294D-02 0.41210806D+00 0.68259517D+04 0.34398521D+04 0.69421106D+04 0.12605568D+01  1  2  5  9  6  1       21 -.384998204141D+00
  </mgrwgt>
  </event>
  <event npLO=' -1 ' npNLO=' 1 '>
  6     66 0.13416416E+02 0.14532211E+02 0.75467711E-02 0.12566255E+00
       21 -1    0    0  501  502 0.00000000E+00 0.00000000E+00 0.19337674E+03 0.19337674E+03 0.00000000E+00 0.0000E+00 0.9000E+01
        2 -1    0    0  502    0 0.00000000E+00 0.00000000E+00 -.56303416E+02 0.56303416E+02 0.00000000E+00 0.0000E+00 0.9000E+01
       23  2    1    2    0    0 0.28659417E+01 -.14246808E+02 -.14472569E+02 0.97439089E+02 0.95256158E+02 0.0000E+00 0.0000E+00
      -11  1    3    3    0    0 -.20514509E+02 0.24153292E+02 -.35687923E+02 0.47726873E+02 0.00000000E+00 0.0000E+00 0.9000E+01
       11  1    3    3    0    0 0.23380450E+02 -.38400100E+02 0.21215354E+02 0.49712216E+02 0.00000000E+00 0.0000E+00 0.9000E+01
        2  1    1    2  501    0 -.28659417E+01 0.14246808E+02 0.15154589E+03 0.15224107E+03 0.00000000E+00 0.0000E+00 0.9000E+01
#aMCatNLO 1  0  0  1  2 0.31634766D+01 0.00000000D+00  -5  6  0 0.00000000D+00 0.00000000D+00 0.00000000D+00 0.00000000D+00 0.00000000D+00
  <mgrwgt>
 0.3418768614D+03   16    2    0
 0.104344482444921D+03 0.000000000000000D+00 0.000000000000000D+00 0.104344482444921D+03
 0.104344482444921D+03 0.000000000000000D+00 0.000000000000000D+00 -.104344482444921D+03
 0.805424242540271D+02 -.205145086008057D+02 0.241532920616208D+02 -.740463066207167D+02
 0.455419130705221D+02 0.233804502852608D+02 -.384001003210109D+02 -.726998527630798D+01
 0.826046275652923D+02 -.286594168445510D+01 0.142468082593901D+02 0.813162918970247D+02
 0.000000000000000D+00 -.000000000000000D+00 -.000000000000000D+00 0.000000000000000D+00
 0.148564781419958D+03 0.000000000000000D+00 0.000000000000000D+00 0.148564781419958D+03
 0.141849698180692D+03 0.000000000000000D+00 0.000000000000000D+00 -.141849698180692D+03
 0.884432068594024D+02 -.652958658596304D+01 0.479240004008666D+02 -.740463066207167D+02
 0.409112741259169D+02 0.305351478350498D+02 -.262389864777556D+02 -.726998527630798D+01
 0.907560346153523D+02 0.114810493884748D+02 0.386329392637979D+02 0.813162918970247D+02
 0.703039639999787D+02 -.354866106375616D+02 -.603179531869089D+02 0.671508323926592D+01
0.871473934122D-02 0.000000000000D+00 0.000000000000D+00 0.131854418519D-02 0.000000000000D+00  6 21 2 -11 11 2 21 2 0.29750267D-01 0.86620641D-02 0.20784321D+04 0.21118517D+03 0.30741760D+04 0.14349356D+01  1  2  2  1  6  1       21 0.193270358303D+03
0.179890592674D-02 0.423098275402D-03 0.191986064806D-04 0.131854418519D-02 0.000000000000D+00  6 21 2 -11 11 2 21 4 0.29750267D-01 0.86620641D-02 0.20784321D+04 0.21118517D+03 0.30741760D+04 0.14349356D+01  1  2  3  1  6  1       21 0.383099616307D+02
0.848659892431D-03 0.000000000000D+00 0.000000000000D+00 0.131854418519D-02 0.000000000000D+00  6 21 2 -11 11 2 21 4 0.29750267D-01 0.86620641D-02 0.20784321D+04 0.21118517D+03 0.30741760D+04 0.14349356D+01  1  2 15  1  6  1       21 0.387533609154D+02
-.127786108935D-02 0.000000000000D+00 0.000000000000D+00 0.131854418519D-02 0.000000000000D+00  6 21 2 -11 11 2 21 4 0.29750267D-01 0.86620641D-02 0.20784321D+04 0.21118517D+03 0.30741760D+04 0.14349356D+01  1  2  4  1  6  1       21 -.583524830583D+02
0.349242289435D-02 0.000000000000D+00 -.829070766988D-02 0.131854418519D-02 0.000000000000D+00  6 21 2 -11 11 2 21 4 0.56074663D-01 0.86620641D-02 0.20784321D+04 0.21118517D+03 0.30741760D+04 0.14349356D+01  1  2  5  1  6  1       21 0.327401847959D+01
0.999149134293D-03 0.000000000000D+00 0.413844762410D-02 0.131854418519D-02 0.000000000000D+00  6 21 2 -11 11 2 21 4 0.29750267D-01 0.86620641D-02 0.20784321D+04 0.21118517D+03 0.30741760D+04 0.14349356D+01  1  2  6  1  6  1       21 0.119596005133D+03
0.127250007587D-02 0.000000000000D+00 -.187182565208D-02 0.131854418519D-02 0.000000000000D+00  6 -1 2 -11 11 2 -1 4 0.56074663D-01 0.86620641D-02 0.20784321D+04 0.21118517D+03 0.30741760D+04 0.14349356D+01  1  2  5  4  6  1       21 0.779631827755D+00
0.127250007587D-02 0.000000000000D+00 -.187182565208D-02 0.131854418519D-02 0.000000000000D+00  6 -3 2 -11 11 2 -3 4 0.56074663D-01 0.86620641D-02 0.20784321D+04 0.21118517D+03 0.30741760D+04 0.14349356D+01  1  2  5  4  6  1       21 0.425190301588D+00
0.127250007587D-02 0.000000000000D+00 -.187182565208D-02 0.131854418519D-02 0.000000000000D+00  6 -5 2 -11 11 2 -5 4 0.56074663D-01 0.86620641D-02 0.20784321D+04 0.21118517D+03 0.30741760D+04 0.14349356D+01  1  2  5  4  6  1       21 0.149886238750D+00
0.127250007587D-02 0.000000000000D+00 -.187182565208D-02 0.131854418519D-02 0.000000000000D+00  6 1 2 -11 11 2 1 4 0.56074663D-01 0.86620641D-02 0.20784321D+04 0.21118517D+03 0.30741760D+04 0.14349356D+01  1  2  5  5  6  1       21 0.162476531415D+01
0.127250007587D-02 0.000000000000D+00 -.187182565208D-02 0.131854418519D-02 0.000000000000D+00  6 3 2 -11 11 2 3 4 0.56074663D-01 0.86620641D-02 0.20784321D+04 0.21118517D+03 0.30741760D+04 0.14349356D+01  1  2  5  5  6  1       21 0.448366366429D+00
0.127250007587D-02 0.000000000000D+00 -.187182565208D-02 0.131854418519D-02 0.000000000000D+00  6 5 2 -11 11 2 5 4 0.56074663D-01 0.86620641D-02 0.20784321D+04 0.21118517D+03 0.30741760D+04 0.14349356D+01  1  2  5  5  6  1       21 0.149278906157D+00
0.127250007587D-02 0.000000000000D+00 -.187182565208D-02 0.131854418519D-02 0.000000000000D+00  6 -2 2 -11 11 2 -2 4 0.56074663D-01 0.86620641D-02 0.20784321D+04 0.21118517D+03 0.30741760D+04 0.14349356D+01  1  2  5  6  6  1       21 0.646660878622D+00
0.127250007587D-02 0.000000000000D+00 -.187182565208D-02 0.131854418519D-02 0.000000000000D+00  6 2 2 -11 11 2 2 4 0.56074663D-01 0.86620641D-02 0.20784321D+04 0.21118517D+03 0.30741760D+04 0.14349356D+01  1  2  5  7  6  1       21 0.231258960550D+01
0.127250007587D-02 0.000000000000D+00 -.187182565208D-02 0.131854418519D-02 0.000000000000D+00  6 -4 2 -11 11 2 -4 4 0.56074663D-01 0.86620641D-02 0.20784321D+04 0.21118517D+03 0.30741760D+04 0.14349356D+01  1  2  5  8  6  1       21 0.245545417318D+00
0.127250007587D-02 0.000000000000D+00 -.187182565208D-02 0.131854418519D-02 0.000000000000D+00  6 4 2 -11 11 2 4 4 0.56074663D-01 0.86620641D-02 0.20784321D+04 0.21118517D+03 0.30741760D+04 0.14349356D+01  1  2  5  9  6  1       21 0.243725132362D+00
  </mgrwgt>
  </event>
  <event npLO=' -1 ' npNLO=' 1 '>
  6     66 -.13416416E+02 0.11822839E+02 0.75467711E-02 0.16877523E+00
       21 -1    0    0  501  502 0.00000000E+00 0.00000000E+00 0.45902400E+01 0.45902400E+01 0.00000000E+00 0.0000E+00 0.9000E+01
        2 -1    0    0  502    0 0.00000000E+00 0.00000000E+00 -.63382329E+03 0.63382329E+03 0.00000000E+00 0.0000E+00 0.9000E+01
       23  2    1    2    0    0 -.10222278E+02 -.59400795E+01 -.51715152E+03 0.52571016E+03 0.93732073E+02 0.0000E+00 0.0000E+00
      -13  1    3    3    0    0 -.32445435E+02 -.12781020E+02 -.72495709E+02 0.80446806E+02 0.00000000E+00 0.0000E+00 0.9000E+01
       13  1    3    3    0    0 0.22223157E+02 0.68409408E+01 -.44465581E+03 0.44526335E+03 0.00000000E+00 0.0000E+00 0.9000E+01
        2  1    1    2  501    0 0.10222278E+02 0.59400795E+01 -.11208154E+03 0.11270337E+03 0.00000000E+00 0.0000E+00 0.9000E+01
#aMCatNLO 1  0  0  1  5 0.12682193D+02 0.00000000D+00  -5  6  0 0.00000000D+00 0.00000000D+00 0.00000000D+00 0.00000000D+00 0.00000000D+00
  <mgrwgt>
 -.1699497253D+05   14    2    0
 0.539388637516351D+02 0.000000000000000D+00 0.000000000000000D+00 0.539388637516351D+02
 0.539388637516351D+02 0.000000000000000D+00 0.000000000000000D+00 -.539388637516351D+02
 0.532235277224220D+02 -.324454352270918D+02 -.127810203113665D+02 0.402079986562929D+02
 0.414359818116188D+02 0.222231567528540D+02 0.684094078402139D+01 -.342968427383688D+02
 0.132182179692295D+02 0.102222784742379D+02 0.594007952734509D+01 -.591115591792410D+01
 0.000000000000000D+00 0.000000000000000D+00 -.000000000000000D+00 0.000000000000000D+00
 0.180394493159435D+04 0.000000000000000D+00 0.000000000000000D+00 0.180394493159435D+04
 0.543331273226500D+02 0.000000000000000D+00 0.000000000000000D+00 -.543331273226500D+02
 0.553422568379340D+02 -.370813443816700D+02 -.842948010374266D+01 0.402079986562929D+02
 0.403670434470178D+02 0.187300544351724D+02 0.101197744880262D+02 -.342968427383688D+02
 0.129110110725428D+02 0.910652425565644D+01 0.698739283355780D+01 -.591115591792410D+01
 0.174965774755950D+04 0.924476569084119D+01 -.867768721784135D+01 0.174961180427170D+04
0.827456456497D-05 0.000000000000D+00 0.000000000000D+00 0.380787306533D-03 0.000000000000D+00  6 21 2 -13 13 2 21 2 0.70619077D-03 0.97511276D-01 0.12231510D+04 0.13977966D+03 0.28247954D+04 0.14677135D+01  1  2  2  1  6  1       21 0.486430137918D+01
0.276498609567D-06 0.401727907177D-06 0.182288996447D-07 0.380787306533D-03 0.000000000000D+00  6 21 2 -13 13 2 21 4 0.70619077D-03 0.97511276D-01 0.12231510D+04 0.13977966D+03 0.28247954D+04 0.14677135D+01  1  2  3  1  6  1       21 -.734032931225D+00
0.639211476039D-06 0.000000000000D+00 0.000000000000D+00 0.380787306533D-03 0.000000000000D+00  6 21 2 -13 13 2 21 4 0.70619077D-03 0.97511276D-01 0.12231510D+04 0.13977966D+03 0.28247954D+04 0.14677135D+01  1  2 15  1  6  1       21 0.809473198522D+00
-.246241978506D+01 0.000000000000D+00 -.207055779544D-02 0.380787306533D-03 0.000000000000D+00  6 21 2 -13 13 2 21 4 0.23647508D-01 0.97511276D-01 0.12231510D+04 0.13977966D+03 0.28247954D+04 0.14677135D+01  1  2  5  1  6  1       21 -.130194483333D+05
-.109296039929D+01 0.000000000000D+00 -.918980536167D-03 0.380787306533D-03 0.000000000000D+00  6 -1 2 -13 13 2 -1 4 0.23647508D-01 0.97511276D-01 0.12231510D+04 0.13977966D+03 0.28247954D+04 0.14677135D+01  1  2  5  4  6  1       21 -.493611309157D+03
-.109296039929D+01 0.000000000000D+00 -.918980536167D-03 0.380787306533D-03 0.000000000000D+00  6 -3 2 -13 13 2 -3 4 0.23647508D-01 0.97511276D-01 0.12231510D+04 0.13977966D+03 0.28247954D+04 0.14677135D+01  1  2  5  4  6  1       21 -.357134464928D+03
-.109296039929D+01 0.000000000000D+00 -.918980536167D-03 0.380787306533D-03 0.000000000000D+00  6 -5 2 -13 13 2 -5 4 0.23647508D-01 0.97511276D-01 0.12231510D+04 0.13977966D+03 0.28247954D+04 0.14677135D+01  1  2  5  4  6  1       21 -.136307951520D+03
-.109296039929D+01 0.000000000000D+00 -.918980536167D-03 0.380787306533D-03 0.000000000000D+00  6 1 2 -13 13 2 1 4 0.23647508D-01 0.97511276D-01 0.12231510D+04 0.13977966D+03 0.28247954D+04 0.14677135D+01  1  2  5  5  6  1       21 -.722677761016D+03
-.109296039929D+01 0.000000000000D+00 -.918980536167D-03 0.380787306533D-03 0.000000000000D+00  6 3 2 -13 13 2 3 4 0.23647508D-01 0.97511276D-01 0.12231510D+04 0.13977966D+03 0.28247954D+04 0.14677135D+01  1  2  5  5  6  1       21 -.357974252067D+03
-.109296039929D+01 0.000000000000D+00 -.918980536167D-03 0.380787306533D-03 0.000000000000D+00  6 5 2 -13 13 2 5 4 0.23647508D-01 0.97511276D-01 0.12231510D+04 0.13977966D+03 0.28247954D+04 0.14677135D+01  1  2  5  5  6  1       21 -.136027079396D+03
-.109296039929D+01 0.000000000000D+00 -.918980536167D-03 0.380787306533D-03 0.000000000000D+00  6 -2 2 -13 13 2 -2 4 0.23647508D-01 0.97511276D-01 0.12231510D+04 0.13977966D+03 0.28247954D+04 0.14677135D+01  1  2  5  6  6  1       21 -.450947954824D+03
-.109296039929D+01 0.000000000000D+00 -.918980536167D-03 0.380787306533D-03 0.000000000000D+00  6 2 2 -13 13 2 2 4 0.23647508D-01 0.97511276D-01 0.12231510D+04 0.13977966D+03 0.28247954D+04 0.14677135D+01  1  2  5  7  6  1       21 -.890477434025D+03
-.109296039929D+01 0.000000000000D+00 -.918980536167D-03 0.380787306533D-03 0.000000000000D+00  6 -4 2 -13 13 2 -4 4 0.23647508D-01 0.97511276D-01 0.12231510D+04 0.13977966D+03 0.28247954D+04 0.14677135D+01  1  2  5  8  6  1       21 -.218076922414D+03
-.109296039929D+01 0.000000000000D+00 -.918980536167D-03 0.380787306533D-03 0.000000000000D+00  6 4 2 -13 13 2 4 4 0.23647508D-01 0.97511276D-01 0.12231510D+04 0.13977966D+03 0.28247954D+04 0.14677135D+01  1  2  5  9  6  1       21 -.217228809747D+03
  </mgrwgt>
  </event>
  <event npLO=' -1 ' npNLO=' 1 '>
  7     66 -.13416416E+02 0.12398629E+02 0.75467711E-02 0.15714931E+00
       21 -1    0    0  501  502 0.00000000E+00 0.00000000E+00 0.50190602E+02 0.50190602E+02 0.00000000E+00 0.0000E+00 0.9000E+01
        2 -1    0    0  503    0 0.00000000E+00 0.00000000E+00 -.73074466E+02 0.73074466E+02 0.00000000E+00 0.0000E+00 0.9000E+01
       23  2    1    2    0    0 -.23090348E+02 -.28471336E+01 -.19370571E+02 0.94652351E+02 0.89680422E+02 0.0000E+00 0.0000E+00
      -13  1    3    3    0    0 -.51249264E+02 0.19170917E+02 -.21625763E+02 0.58836084E+02 0.00000000E+00 0.0000E+00 0.9000E+01
       13  1    3    3    0    0 0.28158916E+02 -.22018050E+02 0.22551924E+01 0.35816267E+02 0.00000000E+00 0.0000E+00 0.9000E+01
        2  1    1    2  501    0 0.15118257E+02 0.82049330E+01 0.23474378E+01 0.17360676E+02 0.00000000E+00 0.0000E+00 0.9000E+01
       21  1    1    2  503  502 0.79720915E+01 -.53577994E+01 -.58607305E+01 0.11252041E+02 0.00000000E+00 0.0000E+00 0.9000E+01
#aMCatNLO 2  0  0  2  1 0.11600815D+02 0.00000000D+00  -5  6  0 0.00000000D+00 0.00000000D+00 0.00000000D+00 0.00000000D+00 0.00000000D+00
  <mgrwgt>
 -.4913254243D+03    2    2    0
 0.551472367322320D+02 0.000000000000000D+00 0.000000000000000D+00 0.551472367322320D+02
 0.551472367322320D+02 0.000000000000000D+00 0.000000000000000D+00 -.551472367322320D+02
 0.517794923439212D+02 -.473541685805632D+02 0.165531417663379D+02 -.128332397741692D+02
 0.398273142446109D+02 0.309152049578042D+02 -.238704680175977D+02 0.778882654684220D+01
 0.186876668759319D+02 0.164389636227590D+02 0.731732625125976D+01 0.504441322732697D+01
 0.000000000000000D+00 0.000000000000000D+00 -.000000000000000D+00 -.000000000000000D+00
 0.584977845746890D+02 0.000000000000000D+00 0.000000000000000D+00 0.584977845746890D+02
 0.626972704128483D+02 0.000000000000000D+00 0.000000000000000D+00 -.626972704128483D+02
 0.562023412731810D+02 -.512492641652428D+02 0.191709166188513D+02 -.128332397741692D+02
 0.365839431651367D+02 0.281589158544732D+02 -.220180502414238D+02 0.778882654684220D+01
 0.179256441617814D+02 0.151182567835957D+02 0.820493300594446D+01 0.504441322732697D+01
 0.104831263874381D+02 0.797209152717392D+01 -.535779938337201D+01 -.419948583815928D+01
-.212645116535D-02 0.000000000000D+00 0.000000000000D+00 0.369925007263D-03 0.000000000000D+00  6 21 2 -13 13 2 21 4 0.72793631D-02 0.11925263D-01 0.34380171D+04 0.31494779D+03 0.29793188D+04 0.14052745D+01  1  2 13  2  6  2        2 -.664732500203D+03
0.568439871750D-03 0.000000000000D+00 0.000000000000D+00 0.368881449487D-03 0.536563599341D-04  6 21 2 -13 13 2 21 4 0.77216311D-02 0.11242225D-01 0.34380171D+04 0.31494779D+03 0.29793188D+04 0.14052745D+01  1  2  1  2  6  2        2 0.173407075888D+03
  </mgrwgt>
  </event>
  <event npLO=' -1 ' npNLO=' 1 '>
  7     66 -.13416416E+02 0.25637281E+02 0.75467711E-02 0.14598959E+00
       21 -1    0    0  501  503 0.00000000E+00 0.00000000E+00 0.14708428E+03 0.14708428E+03 0.00000000E+00 0.0000E+00 0.9000E+01
        2 -1    0    0  502    0 0.00000000E+00 0.00000000E+00 -.31023243E+02 0.31023243E+02 0.00000000E+00 0.0000E+00 0.9000E+01
       23  2    1    2    0    0 -.21406870E+02 -.18681520E+02 0.56880649E+02 0.11156361E+03 0.91672118E+02 0.0000E+00 0.0000E+00
      -11  1    3    3    0    0 -.33229778E+02 0.28743077E+01 -.14275125E+02 0.36280284E+02 0.00000000E+00 0.0000E+00 0.9000E+01
       11  1    3    3    0    0 0.11822908E+02 -.21555827E+02 0.71155774E+02 0.75283325E+02 0.00000000E+00 0.0000E+00 0.9000E+01
        2  1    1    2  501    0 0.15485306E+02 0.18910111E+02 0.45917604E+02 0.52017433E+02 0.00000000E+00 0.0000E+00 0.9000E+01
       21  1    1    2  502  503 0.59215648E+01 -.22859130E+00 0.13262785E+02 0.14526481E+02 0.00000000E+00 0.0000E+00 0.9000E+01
#aMCatNLO 2  0  0  1  2 0.65336343D+01 0.00000000D+00  -5  6  0 0.00000000D+00 0.00000000D+00 0.00000000D+00 0.00000000D+00 0.00000000D+00
  <mgrwgt>
 -.1834004451D+03    3    2    0
 0.635534406204979D+02 0.000000000000000D+00 0.000000000000000D+00 0.635534406204979D+02
 0.635534406204979D+02 0.000000000000000D+00 0.000000000000000D+00 -.635534406204979D+02
 0.566829675416264D+02 -.305558156245546D+02 0.277108423732425D+01 -.476615362005144D+02
 0.399283894506772D+02 0.136673339603390D+02 -.216270280391255D+02 0.306553735050871D+02
 0.304955242486923D+02 0.168884816642156D+02 0.188559438018013D+02 0.170061626954274D+02
 0.000000000000000D+00 0.000000000000000D+00 -.000000000000000D+00 0.000000000000000D+00
 0.702597077092154D+02 0.000000000000000D+00 0.000000000000000D+00 0.702597077092154D+02
 0.649452073781072D+02 0.000000000000000D+00 0.000000000000000D+00 -.649452073781072D+02
 0.581730335644984D+02 -.332297781545652D+02 0.287430772564419D+01 -.476615362005144D+02
 0.392961418078501D+02 0.118229076700033D+02 -.215558272973422D+02 0.306553735050871D+02
 0.297757712577007D+02 0.154853056501876D+02 0.189101108745516D+02 0.170061626954274D+02
 0.795996845727335D+01 0.592156483437420D+01 -.228591302853601D+00 0.531450033110820D+01
-.959690971781D-03 0.000000000000D+00 0.000000000000D+00 0.874467934962D-03 0.000000000000D+00  6 21 2 -11 11 2 21 4 0.23123893D-01 0.46705260D-02 0.19495135D+04 0.92577405D+03 0.39942810D+04 0.13339056D+01  1  2 13  1  6  1       21 -.113683778785D+03
-.959690971781D-03 0.000000000000D+00 0.000000000000D+00 0.874467934962D-03 0.000000000000D+00  6 21 2 -11 11 2 21 4 0.23123893D-01 0.46705260D-02 0.19495135D+04 0.92577405D+03 0.39942810D+04 0.13339056D+01  1  2 13  1  6  1       21 -.113683778785D+03
0.367180242329D-03 0.000000000000D+00 0.000000000000D+00 0.904978686319D-03 0.581673117670D-03  6 21 2 -11 11 2 21 4 0.22628351D-01 0.47728065D-02 0.19495135D+04 0.92577405D+03 0.39942810D+04 0.13339056D+01  1  2  1  1  6  1       21 0.439671124939D+02
  </mgrwgt>
  </event>
  <event npLO=' -1 ' npNLO=' 1 '>
  7     66 0.13416416E+02 0.10065124E+02 0.75467711E-02 0.17129593E+00
       -1 -1    0    0    0  502 0.00000000E+00 0.00000000E+00 0.78028349E+03 0.78028349E+03 0.00000000E+00 0.0000E+00 0.9000E+01
        4 -1    0    0  502    0 0.00000000E+00 0.00000000E+00 -.37662042E+02 0.37662042E+02 0.00000000E+00 0.0000E+00 0.9000E+01
       23  2    1    2    0    0 0.30379120E+01 -.17987251E+01 0.21908183E+02 0.92772900E+02 0.90079844E+02 0.0000E+00 0.0000E+00
      -11  1    3    3    0    0 0.24479752E+02 0.12089949E+02 0.48651234E+02 0.55788598E+02 0.00000000E+00 0.0000E+00 0.9000E+01
       11  1    3    3    0    0 -.21441840E+02 -.13888674E+02 -.26743051E+02 0.36984302E+02 0.00000000E+00 0.0000E+00 0.9000E+01
        4  1    1    2  501    0 -.17328929E+02 -.37594949E+01 0.34518878E+02 0.38806939E+02 0.00000000E+00 0.0000E+00 0.9000E+01
       -1  1    1    2    0  501 0.14291017E+02 0.55582200E+01 0.68619439E+03 0.68636569E+03 0.00000000E+00 0.0000E+00 0.9000E+01
#aMCatNLO 2  0  0  1  5 0.65336343D+01 0.00000000D+00  -5  6  0 0.00000000D+00 0.00000000D+00 0.00000000D+00 0.00000000D+00 0.00000000D+00
  <mgrwgt>
 0.1955320610D+02    1    2    0
 0.589366479210948D+02 0.000000000000000D+00 0.000000000000000D+00 0.589366479210948D+02
 0.589366479210948D+02 0.000000000000000D+00 0.000000000000000D+00 -.589366479210948D+02
 0.425240320360305D+02 0.293805172015681D+02 0.139960088028104D+02 0.273713398861174D+02
 0.508325332834485D+02 -.151355522352122D+02 -.114359631182550D+02 -.471601552807662D+02
 0.245167305227106D+02 -.142449649663559D+02 -.256004568455542D+01 0.197888153946488D+02
 0.000000000000000D+00 0.000000000000000D+00 0.000000000000000D+00 0.000000000000000D+00
 0.493330588917852D+03 0.000000000000000D+00 0.000000000000000D+00 0.493330588917852D+03
 0.595687154655165D+02 0.000000000000000D+00 0.000000000000000D+00 -.595687154655165D+02
 0.386602559378820D+02 0.244797522563042D+02 0.120899491930755D+02 0.273713398861174D+02
 0.536351380359299D+02 -.214418402410868D+02 -.138886742744940D+02 -.471601552807662D+02
 0.265710892694857D+02 -.173289286570642D+02 -.375949489185292D+01 0.197888153946488D+02
 0.434032821140071D+03 0.142910166418467D+02 0.555821997327137D+01 0.433761873452336D+03
0.675678568384D-01 0.000000000000D+00 0.000000000000D+00 0.206058691963D-02 0.830222982956D-02  6 -1 4 -11 11 4 -1 4 0.12004361D+00 0.57941603D-02 0.18453617D+04 0.14071810D+03 0.28191539D+04 0.14671633D+01  1  2  1  4  6  1       21 0.195532061015D+02
  </mgrwgt>
  </event>
  <event npLO=' -1 ' npNLO=' 1 '>
  7     66 -.13416416E+02 0.14546384E+02 0.75467711E-02 0.15597719E+00
       21 -1    0    0  501  502 0.00000000E+00 0.00000000E+00 0.14505912E+02 0.14505912E+02 0.00000000E+00 0.0000E+00 0.9000E+01
        2 -1    0    0  503    0 0.00000000E+00 0.00000000E+00 -.26333853E+03 0.26333853E+03 0.00000000E+00 0.0000E+00 0.9000E+01
       23  2    1    2    0    0 -.22975123E+02 -.40087058E+01 -.21097143E+03 0.22874340E+03 0.85268242E+02 0.0000E+00 0.0000E+00
      -11  1    3    3    0    0 -.39941543E+02 -.25340545E+02 -.18550683E+03 0.19144256E+03 0.00000000E+00 0.0000E+00 0.9000E+01
       11  1    3    3    0    0 0.16966420E+02 0.21331839E+02 -.25464598E+02 0.37300838E+02 0.00000000E+00 0.0000E+00 0.9000E+01
        2  1    1    2  501    0 0.16615160E+02 0.71777338E+01 -.10699546E+02 0.21025311E+02 0.00000000E+00 0.0000E+00 0.9000E+01
       21  1    1    2  503  502 0.63599623E+01 -.31690279E+01 -.27161643E+02 0.28075731E+02 0.00000000E+00 0.0000E+00 0.9000E+01
#aMCatNLO 2  0  0  2  1 0.81031153D+01 0.00000000D+00  -5  6  0 0.00000000D+00 0.00000000D+00 0.00000000D+00 0.00000000D+00 0.00000000D+00
  <mgrwgt>
 -.5726852142D+03    2    2    0
 0.574366950077673D+02 0.000000000000000D+00 0.000000000000000D+00 0.574366950077673D+02
 0.574366950077673D+02 0.000000000000000D+00 0.000000000000000D+00 -.574366950077673D+02
 0.567682370511370D+02 -.367628222281811D+02 -.269244310130162D+02 -.338556148125915D+02
 0.323149213623479D+02 0.187424367182310D+02 0.204468897304611D+02 0.165801058159531D+02
 0.257902316020497D+02 0.180203855099501D+02 0.647754128255510D+01 0.172755089966385D+02
 0.000000000000000D+00 0.000000000000000D+00 -.000000000000000D+00 -.000000000000000D+00
 0.594186048687014D+02 0.000000000000000D+00 0.000000000000000D+00 0.594186048687014D+02
 0.642890484520437D+02 0.000000000000000D+00 0.000000000000000D+00 -.642890484520437D+02
 0.581693451323204D+02 -.399415425807759D+02 -.253405452793050D+02 -.338556148125915D+02
 0.319030827334727D+02 0.169664199207263D+02 0.213318394449281D+02 0.165801058159531D+02
 0.250205241007972D+02 0.166151603415142D+02 0.717773376570970D+01 0.172755089966385D+02
 0.861470135415486D+01 0.635996231853543D+01 -.316902793133273D+01 -.487044358334229D+01
-.226710794915D-02 0.000000000000D+00 0.000000000000D+00 0.823322657352D-04 0.000000000000D+00  6 21 2 -11 11 2 21 4 0.21572411D-02 0.41911582D-01 0.24881764D+04 0.33897275D+03 0.27901899D+04 0.14000240D+01  1  2 13  2  6  2        2 -.113222059655D+04
0.113755686931D-02 0.000000000000D+00 0.000000000000D+00 0.816813940724D-04 0.180375345680D-04  6 21 2 -11 11 2 21 4 0.22316788D-02 0.40513620D-01 0.24881764D+04 0.33897275D+03 0.27901899D+04 0.14000240D+01  1  2  1  2  6  2        2 0.559535382387D+03
  </mgrwgt>
  </event>
  <event npLO=' -1 ' npNLO=' 1 '>
  6     66 0.13416416E+02 0.12648596E+02 0.75467711E-02 0.17076099E+00
       21 -1    0    0  501  502 0.00000000E+00 0.00000000E+00 0.53338129E+02 0.53338129E+02 0.00000000E+00 0.0000E+00 0.9000E+01
        4 -1    0    0  502    0 0.00000000E+00 0.00000000E+00 -.62014772E+02 0.62014772E+02 0.00000000E+00 0.0000E+00 0.9000E+01
       23  2    1    2    0    0 0.12624557E+02 0.77944656E+00 -.22291043E+02 0.96769605E+02 0.93313873E+02 0.0000E+00 0.0000E+00
      -11  1    3    3    0    0 0.36301131E+02 -.30839440E+02 0.62440389E+01 0.48039892E+02 0.00000000E+00 0.0000E+00 0.9000E+01
       11  1    3    3    0    0 -.23676574E+02 0.31618886E+02 -.28535082E+02 0.48729714E+02 0.00000000E+00 0.0000E+00 0.9000E+01
        4  1    1    2  501    0 -.12624557E+02 -.77944656E+00 0.13614400E+02 0.18583296E+02 0.00000000E+00 0.0000E+00 0.9000E+01
#aMCatNLO 1  0  0  1  2 0.55425372D+01 0.00000000D+00  -5  6  0 0.00000000D+00 0.00000000D+00 0.00000000D+00 0.00000000D+00 0.00000000D+00
  <mgrwgt>
 0.2436828173D+03   49    2    0
 0.575130585576275D+02 0.000000000000000D+00 0.000000000000000D+00 0.575130585576275D+02
 0.575130585576275D+02 0.000000000000000D+00 0.000000000000000D+00 -.575130585576275D+02
 0.486473707097944D+02 0.363011313756877D+02 -.308394395431096D+02 0.988552004135906D+01
 0.467156960355563D+02 -.236765739088019D+02 0.316188860993558D+02 -.249403718068415D+02
 0.196630503699044D+02 -.126245574668858D+02 -.779446556246260D+00 0.150548517654824D+02
 0.000000000000000D+00 0.000000000000000D+00 0.000000000000000D+00 0.000000000000000D+00
 0.612333435344988D+02 0.000000000000000D+00 0.000000000000000D+00 0.612333435344988D+02
 0.590359670198253D+02 0.000000000000000D+00 0.000000000000000D+00 -.590359670198253D+02
 0.473328548400498D+02 0.343666513682771D+02 -.310098196472088D+02 0.988552004135906D+01
 0.475964499550745D+02 -.255774337976976D+02 0.314514671007064D+02 -.249403718068415D+02
 0.201910284330684D+02 -.134278158278289D+02 -.850193859207137D+00 0.150548517654824D+02
 0.514897732613137D+01 0.463859825724951D+01 0.408546405709516D+00 0.219737651467347D+01
0.361596849384D-03 0.000000000000D+00 0.000000000000D+00 0.883231036487D-03 0.000000000000D+00  6 21 4 -11 11 4 21 2 0.82058660D-02 0.95407341D-02 0.24891137D+04 0.15998699D+03 0.28524048D+04 0.14567319D+01  1  2  2  1  6  1       21 0.277215598521D+02
0.374592611318D-04 0.175554307909D-04 0.796599340970D-06 0.883231036487D-03 0.000000000000D+00  6 21 4 -11 11 4 21 4 0.82058660D-02 0.95407341D-02 0.24891137D+04 0.15998699D+03 0.28524048D+04 0.14567319D+01  1  2  3  1  6  1       21 -.172686560086D+01
0.323974450050D-04 0.000000000000D+00 0.000000000000D+00 0.883231036487D-03 0.000000000000D+00  6 21 4 -11 11 4 21 4 0.82058660D-02 0.95407341D-02 0.24891137D+04 0.15998699D+03 0.28524048D+04 0.14567319D+01  1  2 15  1  6  1       21 0.527063609928D+01
0.508121408528D-03 0.000000000000D+00 0.000000000000D+00 0.893127783696D-03 0.000000000000D+00  6 21 4 -11 11 4 21 4 0.89680113D-02 0.95407341D-02 0.27530575D+04 0.14470913D+03 0.28151290D+04 0.14648706D+01  1  2 12  1  6  1       21 0.731132917078D+02
0.508121408528D-03 0.000000000000D+00 0.000000000000D+00 0.893127783696D-03 0.000000000000D+00  6 21 4 -11 11 4 21 4 0.89680113D-02 0.95407341D-02 0.27530575D+04 0.14470913D+03 0.28151290D+04 0.14648706D+01  1  2 12  1  6  1       21 0.731132917078D+02
-.440380582972D-03 0.000000000000D+00 0.000000000000D+00 0.883231036487D-03 0.000000000000D+00  6 21 4 -11 11 4 21 4 0.82058660D-02 0.95407341D-02 0.24891137D+04 0.15998699D+03 0.28524048D+04 0.14567319D+01  1  2  4  1  6  1       21 -.716441002577D+02
-.553292874397D-02 0.000000000000D+00 -.992702555484D-03 0.883231036487D-03 0.000000000000D+00  6 21 4 -11 11 4 21 4 0.89613149D-02 0.95407341D-02 0.24891137D+04 0.15998699D+03 0.28524048D+04 0.14567319D+01  1  2  5  1  6  1       21 -.799816362206D+03
0.554132727074D-02 0.000000000000D+00 0.977471497003D-03 0.883231036487D-03 0.000000000000D+00  6 21 4 -11 11 4 21 4 0.82058660D-02 0.95407341D-02 0.24891137D+04 0.15998699D+03 0.28524048D+04 0.14567319D+01  1  2  6  1  6  1       21 0.923165144127D+03
0.138736403085D-03 0.000000000000D+00 0.000000000000D+00 0.883231036487D-03 0.552238634426D-03  6 21 4 -11 11 4 21 4 0.87366700D-02 0.97933666D-02 0.27530575D+04 0.14470913D+03 0.28151290D+04 0.14648706D+01  1  2 11  1  6  1       21 0.199449428931D+02
0.117188761920D-04 0.000000000000D+00 0.000000000000D+00 0.893127783696D-03 0.000000000000D+00  6 -1 4 -11 11 4 -1 4 0.89680113D-02 0.95407341D-02 0.27530575D+04 0.14470913D+03 0.28151290D+04 0.14648706D+01  1  2 12  4  6  1       21 0.116974376809D+00
0.117188761920D-04 0.000000000000D+00 0.000000000000D+00 0.893127783696D-03 0.000000000000D+00  6 -3 4 -11 11 4 -3 4 0.89680113D-02 0.95407341D-02 0.27530575D+04 0.14470913D+03 0.28151290D+04 0.14648706D+01  1  2 12  4  6  1       21 0.989312468481D-01
0.117188761920D-04 0.000000000000D+00 0.000000000000D+00 0.893127783696D-03 0.000000000000D+00  6 -5 4 -11 11 4 -5 4 0.89680113D-02 0.95407341D-02 0.27530575D+04 0.14470913D+03 0.28151290D+04 0.14648706D+01  1  2 12  4  6  1       21 0.426248420249D-01
0.117188761920D-04 0.000000000000D+00 0.000000000000D+00 0.893127783696D-03 0.000000000000D+00  6 -1 4 -11 11 4 -1 4 0.89680113D-02 0.95407341D-02 0.27530575D+04 0.14470913D+03 0.28151290D+04 0.14648706D+01  1  2 12  4  6  1       21 0.116974376809D+00
0.117188761920D-04 0.000000000000D+00 0.000000000000D+00 0.893127783696D-03 0.000000000000D+00  6 -3 4 -11 11 4 -3 4 0.89680113D-02 0.95407341D-02 0.27530575D+04 0.14470913D+03 0.28151290D+04 0.14648706D+01  1  2 12  4  6  1       21 0.989312468481D-01
0.117188761920D-04 0.000000000000D+00 0.000000000000D+00 0.893127783696D-03 0.000000000000D+00  6 -5 4 -11 11 4 -5 4 0.89680113D-02 0.95407341D-02 0.27530575D+04 0.14470913D+03 0.28151290D+04 0.14648706D+01  1  2 12  4  6  1       21 0.426248420249D-01
-.101180921943D-03 0.000000000000D+00 -.219935345736D-04 0.883231036487D-03 0.000000000000D+00  6 -1 4 -11 11 4 -1 4 0.89613149D-02 0.95407341D-02 0.24891137D+04 0.15998699D+03 0.28524048D+04 0.14567319D+01  1  2  5  4  6  1       21 -.101972087839D+01
-.101180921943D-03 0.000000000000D+00 -.219935345736D-04 0.883231036487D-03 0.000000000000D+00  6 -3 4 -11 11 4 -3 4 0.89613149D-02 0.95407341D-02 0.24891137D+04 0.15998699D+03 0.28524048D+04 0.14567319D+01  1  2  5  4  6  1       21 -.862578433474D+00
-.101180921943D-03 0.000000000000D+00 -.219935345736D-04 0.883231036487D-03 0.000000000000D+00  6 -5 4 -11 11 4 -5 4 0.89613149D-02 0.95407341D-02 0.24891137D+04 0.15998699D+03 0.28524048D+04 0.14567319D+01  1  2  5  4  6  1       21 -.372162241822D+00
0.766000785382D-05 0.000000000000D+00 0.000000000000D+00 0.883231036487D-03 0.953497154014D-05  6 -1 4 -11 11 4 -1 4 0.87366700D-02 0.97933666D-02 0.27530575D+04 0.14470913D+03 0.28151290D+04 0.14648706D+01  1  2 11  4  6  1       21 0.760235859194D-01
0.766000785382D-05 0.000000000000D+00 0.000000000000D+00 0.883231036487D-03 0.953497154014D-05  6 -3 4 -11 11 4 -3 4 0.87366700D-02 0.97933666D-02 0.27530575D+04 0.14470913D+03 0.28151290D+04 0.14648706D+01  1  2 11  4  6  1       21 0.644702812682D-01
0.766000785382D-05 0.000000000000D+00 0.000000000000D+00 0.883231036487D-03 0.953497154014D-05  6 -5 4 -11 11 4 -5 4 0.87366700D-02 0.97933666D-02 0.27530575D+04 0.14470913D+03 0.28151290D+04 0.14648706D+01  1  2 11  4  6  1       21 0.278707725779D-01
0.117188761920D-04 0.000000000000D+00 0.000000000000D+00 0.893127783696D-03 0.000000000000D+00  6 1 4 -11 11 4 1 4 0.89680113D-02 0.95407341D-02 0.27530575D+04 0.14470913D+03 0.28151290D+04 0.14648706D+01  1  2 12  5  6  1       21 0.138860825250D+00
0.117188761920D-04 0.000000000000D+00 0.000000000000D+00 0.893127783696D-03 0.000000000000D+00  6 3 4 -11 11 4 3 4 0.89680113D-02 0.95407341D-02 0.27530575D+04 0.14470913D+03 0.28151290D+04 0.14648706D+01  1  2 12  5  6  1       21 0.989700720889D-01
0.117188761920D-04 0.000000000000D+00 0.000000000000D+00 0.893127783696D-03 0.000000000000D+00  6 5 4 -11 11 4 5 4 0.89680113D-02 0.95407341D-02 0.27530575D+04 0.14470913D+03 0.28151290D+04 0.14648706D+01  1  2 12  5  6  1       21 0.425919018979D-01
0.117188761920D-04 0.000000000000D+00 0.000000000000D+00 0.893127783696D-03 0.000000000000D+00  6 1 4 -11 11 4 1 4 0.89680113D-02 0.95407341D-02 0.27530575D+04 0.14470913D+03 0.28151290D+04 0.14648706D+01  1  2 12  5  6  1       21 0.138860825250D+00
0.117188761920D-04 0.000000000000D+00 0.000000000000D+00 0.893127783696D-03 0.000000000000D+00  6 3 4 -11 11 4 3 4 0.89680113D-02 0.95407341D-02 0.27530575D+04 0.14470913D+03 0.28151290D+04 0.14648706D+01  1  2 12  5  6  1       21 0.989700720889D-01
0.117188761920D-04 0.000000000000D+00 0.000000000000D+00 0.893127783696D-03 0.000000000000D+00  6 5 4 -11 11 4 5 4 0.89680113D-02 0.95407341D-02 0.27530575D+04 0.14470913D+03 0.28151290D+04 0.14648706D+01  1  2 12  5  6  1       21 0.425919018979D-01
-.101180921943D-03 0.000000000000D+00 -.219935345736D-04 0.883231036487D-03 0.000000000000D+00  6 1 4 -11 11 4 1 4 0.89613149D-02 0.95407341D-02 0.24891137D+04 0.15998699D+03 0.28524048D+04 0.14567319D+01  1  2  5  5  6  1       21 -.121035739105D+01
-.101180921943D-03 0.000000000000D+00 -.219935345736D-04 0.883231036487D-03 0.000000000000D+00  6 3 4 -11 11 4 3 4 0.89613149D-02 0.95407341D-02 0.24891137D+04 0.15998699D+03 0.28524048D+04 0.14567319D+01  1  2  5  5  6  1       21 -.862917145757D+00
-.101180921943D-03 0.000000000000D+00 -.219935345736D-04 0.883231036487D-03 0.000000000000D+00  6 5 4 -11 11 4 5 4 0.89613149D-02 0.95407341D-02 0.24891137D+04 0.15998699D+03 0.28524048D+04 0.14567319D+01  1  2  5  5  6  1       21 -.371875049214D+00
0.837067642210D-05 0.000000000000D+00 0.000000000000D+00 0.883231036487D-03 0.104195926401D-04  6 1 4 -11 11 4 1 4 0.87366700D-02 0.97933666D-02 0.27530575D+04 0.14470913D+03 0.28151290D+04 0.14648706D+01  1  2 11  5  6  1       21 0.982773666632D-01
0.837067642210D-05 0.000000000000D+00 0.000000000000D+00 0.883231036487D-03 0.104195926401D-04  6 3 4 -11 11 4 3 4 0.87366700D-02 0.97933666D-02 0.27530575D+04 0.14470913D+03 0.28151290D+04 0.14648706D+01  1  2 11  5  6  1       21 0.704760326508D-01
0.837067642210D-05 0.000000000000D+00 0.000000000000D+00 0.883231036487D-03 0.104195926401D-04  6 5 4 -11 11 4 5 4 0.87366700D-02 0.97933666D-02 0.27530575D+04 0.14470913D+03 0.28151290D+04 0.14648706D+01  1  2 11  5  6  1       21 0.304337137536D-01
0.117188761920D-04 0.000000000000D+00 0.000000000000D+00 0.893127783696D-03 0.000000000000D+00  6 -4 4 -11 11 4 -4 4 0.89680113D-02 0.95407341D-02 0.27530575D+04 0.14470913D+03 0.28151290D+04 0.14648706D+01  1  2 12  6  6  1       21 0.665791085831D-01
0.117188761920D-04 0.000000000000D+00 0.000000000000D+00 0.893127783696D-03 0.000000000000D+00  6 -4 4 -11 11 4 -4 4 0.89680113D-02 0.95407341D-02 0.27530575D+04 0.14470913D+03 0.28151290D+04 0.14648706D+01  1  2 12  6  6  1       21 0.665791085831D-01
-.101180921943D-03 0.000000000000D+00 -.219935345736D-04 0.883231036487D-03 0.000000000000D+00  6 -4 4 -11 11 4 -4 4 0.89613149D-02 0.95407341D-02 0.24891137D+04 0.15998699D+03 0.28524048D+04 0.14567319D+01  1  2  5  6  6  1       21 -.580808084234D+00
0.375938148101D-04 0.000000000000D+00 0.000000000000D+00 0.883231036487D-03 0.118657782790D-03  6 -4 4 -11 11 4 -4 4 0.87366700D-02 0.97933666D-02 0.27530575D+04 0.14470913D+03 0.28151290D+04 0.14648706D+01  1  2 11  6  6  1       21 0.213486948024D+00
0.117188761920D-04 0.000000000000D+00 0.000000000000D+00 0.893127783696D-03 0.000000000000D+00  6 4 4 -11 11 4 4 4 0.89680113D-02 0.95407341D-02 0.27530575D+04 0.14470913D+03 0.28151290D+04 0.14648706D+01  1  2 12  7  6  1       21 0.664796262653D-01
0.117188761920D-04 0.000000000000D+00 0.000000000000D+00 0.893127783696D-03 0.000000000000D+00  6 4 4 -11 11 4 4 4 0.89680113D-02 0.95407341D-02 0.27530575D+04 0.14470913D+03 0.28151290D+04 0.14648706D+01  1  2 12  7  6  1       21 0.664796262653D-01
-.101180921943D-03 0.000000000000D+00 -.219935345736D-04 0.883231036487D-03 0.000000000000D+00  6 4 4 -11 11 4 4 4 0.89613149D-02 0.95407341D-02 0.24891137D+04 0.15998699D+03 0.28524048D+04 0.14567319D+01  1  2  5  7  6  1       21 -.579941453292D+00
0.108223267066D-04 0.000000000000D+00 0.000000000000D+00 0.883231036487D-03 0.113635526024D-04  6 4 4 -11 11 4 4 4 0.87366700D-02 0.97933666D-02 0.27530575D+04 0.14470913D+03 0.28151290D+04 0.14648706D+01  1  2 11  7  6  1       21 0.613685389707D-01
0.117188761920D-04 0.000000000000D+00 0.000000000000D+00 0.893127783696D-03 0.000000000000D+00  6 -2 4 -11 11 4 -2 4 0.89680113D-02 0.95407341D-02 0.27530575D+04 0.14470913D+03 0.28151290D+04 0.14648706D+01  1  2 12  8  6  1       21 0.113290605717D+00
0.117188761920D-04 0.000000000000D+00 0.000000000000D+00 0.893127783696D-03 0.000000000000D+00  6 -2 4 -11 11 4 -2 4 0.89680113D-02 0.95407341D-02 0.27530575D+04 0.14470913D+03 0.28151290D+04 0.14648706D+01  1  2 12  8  6  1       21 0.113290605717D+00
-.101180921943D-03 0.000000000000D+00 -.219935345736D-04 0.883231036487D-03 0.000000000000D+00  6 -2 4 -11 11 4 -2 4 0.89613149D-02 0.95407341D-02 0.24891137D+04 0.15998699D+03 0.28524048D+04 0.14567319D+01  1  2  5  8  6  1       21 -.987641483876D+00
0.971297827539D-05 0.000000000000D+00 0.000000000000D+00 0.883231036487D-03 0.120904538472D-04  6 -2 4 -11 11 4 -2 4 0.87366700D-02 0.97933666D-02 0.27530575D+04 0.14470913D+03 0.28151290D+04 0.14648706D+01  1  2 11  8  6  1       21 0.934693720045D-01
0.117188761920D-04 0.000000000000D+00 0.000000000000D+00 0.893127783696D-03 0.000000000000D+00  6 2 4 -11 11 4 2 4 0.89680113D-02 0.95407341D-02 0.27530575D+04 0.14470913D+03 0.28151290D+04 0.14648706D+01  1  2 12  9  6  1       21 0.154445940562D+00
0.117188761920D-04 0.000000000000D+00 0.000000000000D+00 0.893127783696D-03 0.000000000000D+00  6 2 4 -11 11 4 2 4 0.89680113D-02 0.95407341D-02 0.27530575D+04 0.14470913D+03 0.28151290D+04 0.14648706D+01  1  2 12  9  6  1       21 0.154445940562D+00
-.101180921943D-03 0.000000000000D+00 -.219935345736D-04 0.883231036487D-03 0.000000000000D+00  6 2 4 -11 11 4 2 4 0.89613149D-02 0.95407341D-02 0.24891137D+04 0.15998699D+03 0.28524048D+04 0.14567319D+01  1  2  5  9  6  1       21 -.134611517629D+01
0.921017319980D-05 0.000000000000D+00 0.000000000000D+00 0.883231036487D-03 0.114645756265D-04  6 2 4 -11 11 4 2 4 0.87366700D-02 0.97933666D-02 0.27530575D+04 0.14470913D+03 0.28151290D+04 0.14648706D+01  1  2 11  9  6  1       21 0.120022604829D+00
  </mgrwgt>
  </event>
  <event npLO=' -1 ' npNLO=' 1 '>
  7     66 -.13416416E+02 0.12086960E+02 0.75467711E-02 0.16134337E+00
       21 -1    0    0  501  502 0.00000000E+00 0.00000000E+00 0.10014364E+02 0.10014364E+02 0.00000000E+00 0.0000E+00 0.9000E+01
        2 -1    0    0  503    0 0.00000000E+00 0.00000000E+00 -.72146704E+03 0.72146704E+03 0.00000000E+00 0.0000E+00 0.9000E+01
       23  2    1    2    0    0 -.10922660E+02 0.19053019E+02 -.65842483E+03 0.66486087E+03 0.89634736E+02 0.0000E+00 0.0000E+00
      -11  1    3    3    0    0 -.22252259E+02 0.39158816E+02 -.16920065E+03 0.17509265E+03 0.00000000E+00 0.0000E+00 0.9000E+01
       11  1    3    3    0    0 0.11329598E+02 -.20105797E+02 -.48922418E+03 0.48976822E+03 0.00000000E+00 0.0000E+00 0.9000E+01
        2  1    1    2  501    0 0.95305512E+01 -.12279856E+02 -.26478627E+01 0.15768242E+02 0.00000000E+00 0.0000E+00 0.9000E+01
       21  1    1    2  503  502 0.13921091E+01 -.67731625E+01 -.50379975E+02 0.50852292E+02 0.00000000E+00 0.0000E+00 0.9000E+01
#aMCatNLO 2  0  0  2  1 0.79928297D+01 0.00000000D+00  -5  6  0 0.00000000D+00 0.00000000D+00 0.00000000D+00 0.00000000D+00 0.00000000D+00
  <mgrwgt>
 -.5980500026D+03    3    2    0
 0.809182572976358D+02 0.000000000000000D+00 0.000000000000000D+00 0.809182572976358D+02
 0.809182572976358D+02 0.000000000000000D+00 0.000000000000000D+00 -.809182572976358D+02
 0.433957506748667D+02 -.218714496282919D+02 0.373060300485570D+02 0.361814728949106D+01
 0.623450439640235D+02 0.118613653683196D+02 -.226930553675312D+02 -.568439773112457D+02
 0.560957199563814D+02 0.100100842599723D+02 -.146129746810258D+02 0.532258300217547D+02
 0.000000000000000D+00 0.000000000000000D+00 -.000000000000000D+00 -.000000000000000D+00
 0.829481656066254D+02 0.000000000000000D+00 0.000000000000000D+00 0.829481656066254D+02
 0.871029897736044D+02 0.000000000000000D+00 0.000000000000000D+00 -.871029897736044D+02
 0.451848082478719D+02 -.222522585506302D+02 0.391588163251190D+02 0.361814728949106D+01
 0.613501478599630D+02 0.113295982032692D+02 -.201057974333372D+02 -.568439773112457D+02
 0.554492133482787D+02 0.953055120711484D+01 -.122798563968302D+02 0.532258300217547D+02
 0.806698592411623D+01 0.139210914024611D+01 -.677316249495165D+01 -.415482416697903D+01
-.293662890852D-02 0.000000000000D+00 0.000000000000D+00 0.241082600225D-02 0.000000000000D+00  6 21 2 -11 11 2 21 4 0.15029680D-02 0.11377934D+00 0.20510475D+04 0.24428277D+03 0.28417822D+04 0.14239033D+01  1  2 13  2  6  2        2 -.931836945036D+03
-.107768111319D-04 0.000000000000D+00 0.000000000000D+00 0.234907996187D-02 0.000000000000D+00  6 21 2 -11 11 2 21 4 0.15029680D-02 0.10311375D+00 0.18733045D+04 0.31374082D+03 0.29746560D+04 0.14055505D+01  1  2  8  2  6  2        2 -.363376270155D+01
0.107259770833D-02 0.000000000000D+00 0.000000000000D+00 0.234907996187D-02 0.621188301242D-03  6 21 2 -11 11 2 21 4 0.15406713D-02 0.11099493D+00 0.20510475D+04 0.24428277D+03 0.28417822D+04 0.14239033D+01  1  2  1  2  6  2        2 0.337420705182D+03
  </mgrwgt>
  </event>
  <event npLO=' -1 ' npNLO=' 1 '>
  6     66 0.13416416E+02 0.21002550E+02 0.75467711E-02 0.14853594E+00
       21 -1    0    0  501  502 0.00000000E+00 0.00000000E+00 0.58473005E+01 0.58473005E+01 0.00000000E+00 0.0000E+00 0.9000E+01
        2 -1    0    0  502    0 0.00000000E+00 0.00000000E+00 -.21021871E+04 0.21021871E+04 0.00000000E+00 0.0000E+00 0.9000E+01
       23  2    1    2    0    0 -.16971600E+02 -.12372222E+02 -.20780763E+04 0.20802016E+04 0.91633017E+02 0.0000E+00 0.0000E+00
      -13  1    3    3    0    0 0.59109350E+01 -.20739317E+02 -.19310381E+04 0.19311585E+04 0.00000000E+00 0.0000E+00 0.9000E+01
       13  1    3    3    0    0 -.22882535E+02 0.83670951E+01 -.14703818E+03 0.14904310E+03 0.00000000E+00 0.0000E+00 0.9000E+01
        2  1    1    2  501    0 0.16971600E+02 0.12372222E+02 -.18263471E+02 0.27832741E+02 0.00000000E+00 0.0000E+00 0.9000E+01
#aMCatNLO 1  0  0  1  2 0.16318516D+02 0.00000000D+00  -5  6  0 0.00000000D+00 0.00000000D+00 0.00000000D+00 0.00000000D+00 0.00000000D+00
  <mgrwgt>
 0.5423936252D+03   38    2    0
 0.110869831570993D+03 0.000000000000000D+00 0.000000000000000D+00 0.110869831570993D+03
 0.110869831570993D+03 0.000000000000000D+00 0.000000000000000D+00 -.110869831570993D+03
 0.102988137706807D+03 0.591093501927535D+01 -.207393170588382D+02 -.100705005255186D+03
 0.268151800957984D+02 -.228825353779364D+02 0.836709507121510D+01 0.111997847442190D+02
 0.919363453393811D+02 0.169716003586610D+02 0.123722219876231D+02 0.895052205109670D+02
 0.000000000000000D+00 -.000000000000000D+00 0.000000000000000D+00 0.000000000000000D+00
 0.119737447860798D+03 0.000000000000000D+00 0.000000000000000D+00 0.119737447860798D+03
 0.115920028034064D+03 0.000000000000000D+00 0.000000000000000D+00 -.115920028034064D+03
 0.104425664832644D+03 0.722905246596200D+01 -.266638743009531D+02 -.100705005255186D+03
 0.260916512629250D+02 -.225463117678920D+02 0.685586704759283D+01 0.111997847442190D+02
 0.916024173518686D+02 0.181379916126886D+02 0.712963016201684D+01 0.895052205109670D+02
 0.135377424474245D+02 -.282073231075858D+01 0.126783770913434D+02 0.381741982673390D+01
0.144025217716D-02 0.000000000000D+00 0.000000000000D+00 0.120782744421D-01 0.000000000000D+00  6 21 2 -13 13 2 21 2 0.89958469D-03 0.32341340D+00 0.11199750D+04 0.44110710D+03 0.33069217D+04 0.13817086D+01  1  2  2  1  6  1       21 0.865218503579D+02
0.111131480651D-03 0.699238598474D-04 0.317288144826D-05 0.120782744421D-01 0.000000000000D+00  6 21 2 -13 13 2 21 4 0.89958469D-03 0.32341340D+00 0.11199750D+04 0.44110710D+03 0.33069217D+04 0.13817086D+01  1  2  3  1  6  1       21 0.566717162865D+01
0.127690412113D-03 0.000000000000D+00 0.000000000000D+00 0.120782744421D-01 0.000000000000D+00  6 21 2 -13 13 2 21 4 0.89958469D-03 0.32341340D+00 0.11199750D+04 0.44110710D+03 0.33069217D+04 0.13817086D+01  1  2 15  1  6  1       21 0.146446319655D+02
0.190018096591D-02 0.000000000000D+00 0.000000000000D+00 0.118090075200D-01 0.000000000000D+00  6 21 2 -13 13 2 21 4 0.10157896D-02 0.32341340D+00 0.17501419D+04 0.55594350D+03 0.34925965D+04 0.13662202D+01  1  2 12  1  6  1       21 0.175086176888D+03
0.190018096591D-02 0.000000000000D+00 0.000000000000D+00 0.118090075200D-01 0.000000000000D+00  6 21 2 -13 13 2 21 4 0.10157896D-02 0.32341340D+00 0.17501419D+04 0.55594350D+03 0.34925965D+04 0.13662202D+01  1  2 12  1  6  1       21 0.175086176888D+03
-.870900460179D-03 0.000000000000D+00 0.000000000000D+00 0.120782744421D-01 0.000000000000D+00  6 21 2 -13 13 2 21 4 0.89958469D-03 0.32341340D+00 0.11199750D+04 0.44110710D+03 0.33069217D+04 0.13817086D+01  1  2  4  1  6  1       21 -.998823365580D+02
-.658994135636D-02 0.000000000000D+00 -.279796701303D-02 0.120782744421D-01 0.000000000000D+00  6 21 2 -13 13 2 21 4 0.10248446D-02 0.32341340D+00 0.11199750D+04 0.44110710D+03 0.33069217D+04 0.13817086D+01  1  2  5  1  6  1       21 -.913536844046D+03
0.670671032531D-02 0.000000000000D+00 0.270510908637D-02 0.120782744421D-01 0.000000000000D+00  6 21 2 -13 13 2 21 4 0.89958469D-03 0.32341340D+00 0.11199750D+04 0.44110710D+03 0.33069217D+04 0.13817086D+01  1  2  6  1  6  1       21 0.110508900856D+04
0.605942685527D-04 0.000000000000D+00 0.000000000000D+00 0.118090075200D-01 0.000000000000D+00  6 -1 2 -13 13 2 -1 4 0.10157896D-02 0.32341340D+00 0.17501419D+04 0.55594350D+03 0.34925965D+04 0.13662202D+01  1  2 12  4  6  1       21 0.291064642057D+00
0.605942685527D-04 0.000000000000D+00 0.000000000000D+00 0.118090075200D-01 0.000000000000D+00  6 -3 2 -13 13 2 -3 4 0.10157896D-02 0.32341340D+00 0.17501419D+04 0.55594350D+03 0.34925965D+04 0.13662202D+01  1  2 12  4  6  1       21 0.272727204579D+00
0.605942685527D-04 0.000000000000D+00 0.000000000000D+00 0.118090075200D-01 0.000000000000D+00  6 -5 2 -13 13 2 -5 4 0.10157896D-02 0.32341340D+00 0.17501419D+04 0.55594350D+03 0.34925965D+04 0.13662202D+01  1  2 12  4  6  1       21 0.151521345441D+00
0.605942685527D-04 0.000000000000D+00 0.000000000000D+00 0.118090075200D-01 0.000000000000D+00  6 -1 2 -13 13 2 -1 4 0.10157896D-02 0.32341340D+00 0.17501419D+04 0.55594350D+03 0.34925965D+04 0.13662202D+01  1  2 12  4  6  1       21 0.291064642057D+00
0.605942685527D-04 0.000000000000D+00 0.000000000000D+00 0.118090075200D-01 0.000000000000D+00  6 -3 2 -13 13 2 -3 4 0.10157896D-02 0.32341340D+00 0.17501419D+04 0.55594350D+03 0.34925965D+04 0.13662202D+01  1  2 12  4  6  1       21 0.272727204579D+00
0.605942685527D-04 0.000000000000D+00 0.000000000000D+00 0.118090075200D-01 0.000000000000D+00  6 -5 2 -13 13 2 -5 4 0.10157896D-02 0.32341340D+00 0.17501419D+04 0.55594350D+03 0.34925965D+04 0.13662202D+01  1  2 12  4  6  1       21 0.151521345441D+00
-.161755858098D-03 0.000000000000D+00 -.967827864237D-04 0.120782744421D-01 0.000000000000D+00  6 -1 2 -13 13 2 -1 4 0.10248446D-02 0.32341340D+00 0.11199750D+04 0.44110710D+03 0.33069217D+04 0.13817086D+01  1  2  5  4  6  1       21 -.132139871431D+01
-.161755858098D-03 0.000000000000D+00 -.967827864237D-04 0.120782744421D-01 0.000000000000D+00  6 -3 2 -13 13 2 -3 4 0.10248446D-02 0.32341340D+00 0.11199750D+04 0.44110710D+03 0.33069217D+04 0.13817086D+01  1  2  5  4  6  1       21 -.123752177423D+01
-.161755858098D-03 0.000000000000D+00 -.967827864237D-04 0.120782744421D-01 0.000000000000D+00  6 -5 2 -13 13 2 -5 4 0.10248446D-02 0.32341340D+00 0.11199750D+04 0.44110710D+03 0.33069217D+04 0.13817086D+01  1  2  5  4  6  1       21 -.683727015441D+00
0.605942685527D-04 0.000000000000D+00 0.000000000000D+00 0.118090075200D-01 0.000000000000D+00  6 1 2 -13 13 2 1 4 0.10157896D-02 0.32341340D+00 0.17501419D+04 0.55594350D+03 0.34925965D+04 0.13662202D+01  1  2 12  5  6  1       21 0.300723152403D+00
0.605942685527D-04 0.000000000000D+00 0.000000000000D+00 0.118090075200D-01 0.000000000000D+00  6 3 2 -13 13 2 3 4 0.10157896D-02 0.32341340D+00 0.17501419D+04 0.55594350D+03 0.34925965D+04 0.13662202D+01  1  2 12  5  6  1       21 0.272196919023D+00
0.605942685527D-04 0.000000000000D+00 0.000000000000D+00 0.118090075200D-01 0.000000000000D+00  6 5 2 -13 13 2 5 4 0.10157896D-02 0.32341340D+00 0.17501419D+04 0.55594350D+03 0.34925965D+04 0.13662202D+01  1  2 12  5  6  1       21 0.151530628532D+00
0.605942685527D-04 0.000000000000D+00 0.000000000000D+00 0.118090075200D-01 0.000000000000D+00  6 1 2 -13 13 2 1 4 0.10157896D-02 0.32341340D+00 0.17501419D+04 0.55594350D+03 0.34925965D+04 0.13662202D+01  1  2 12  5  6  1       21 0.300723152403D+00
0.605942685527D-04 0.000000000000D+00 0.000000000000D+00 0.118090075200D-01 0.000000000000D+00  6 3 2 -13 13 2 3 4 0.10157896D-02 0.32341340D+00 0.17501419D+04 0.55594350D+03 0.34925965D+04 0.13662202D+01  1  2 12  5  6  1       21 0.272196919023D+00
0.605942685527D-04 0.000000000000D+00 0.000000000000D+00 0.118090075200D-01 0.000000000000D+00  6 5 2 -13 13 2 5 4 0.10157896D-02 0.32341340D+00 0.17501419D+04 0.55594350D+03 0.34925965D+04 0.13662202D+01  1  2 12  5  6  1       21 0.151530628532D+00
-.161755858098D-03 0.000000000000D+00 -.967827864237D-04 0.120782744421D-01 0.000000000000D+00  6 1 2 -13 13 2 1 4 0.10248446D-02 0.32341340D+00 0.11199750D+04 0.44110710D+03 0.33069217D+04 0.13817086D+01  1  2  5  5  6  1       21 -.136567951402D+01
-.161755858098D-03 0.000000000000D+00 -.967827864237D-04 0.120782744421D-01 0.000000000000D+00  6 3 2 -13 13 2 3 4 0.10248446D-02 0.32341340D+00 0.11199750D+04 0.44110710D+03 0.33069217D+04 0.13817086D+01  1  2  5  5  6  1       21 -.123509612260D+01
-.161755858098D-03 0.000000000000D+00 -.967827864237D-04 0.120782744421D-01 0.000000000000D+00  6 5 2 -13 13 2 5 4 0.10248446D-02 0.32341340D+00 0.11199750D+04 0.44110710D+03 0.33069217D+04 0.13817086D+01  1  2  5  5  6  1       21 -.683768948411D+00
0.605942685527D-04 0.000000000000D+00 0.000000000000D+00 0.118090075200D-01 0.000000000000D+00  6 -2 2 -13 13 2 -2 4 0.10157896D-02 0.32341340D+00 0.17501419D+04 0.55594350D+03 0.34925965D+04 0.13662202D+01  1  2 12  6  6  1       21 0.292313783546D+00
0.605942685527D-04 0.000000000000D+00 0.000000000000D+00 0.118090075200D-01 0.000000000000D+00  6 -2 2 -13 13 2 -2 4 0.10157896D-02 0.32341340D+00 0.17501419D+04 0.55594350D+03 0.34925965D+04 0.13662202D+01  1  2 12  6  6  1       21 0.292313783546D+00
-.161755858098D-03 0.000000000000D+00 -.967827864237D-04 0.120782744421D-01 0.000000000000D+00  6 -2 2 -13 13 2 -2 4 0.10248446D-02 0.32341340D+00 0.11199750D+04 0.44110710D+03 0.33069217D+04 0.13817086D+01  1  2  5  6  6  1       21 -.132708139492D+01
0.605942685527D-04 0.000000000000D+00 0.000000000000D+00 0.118090075200D-01 0.000000000000D+00  6 2 2 -13 13 2 2 4 0.10157896D-02 0.32341340D+00 0.17501419D+04 0.55594350D+03 0.34925965D+04 0.13662202D+01  1  2 12  7  6  1       21 0.308018422489D+00
0.605942685527D-04 0.000000000000D+00 0.000000000000D+00 0.118090075200D-01 0.000000000000D+00  6 2 2 -13 13 2 2 4 0.10157896D-02 0.32341340D+00 0.17501419D+04 0.55594350D+03 0.34925965D+04 0.13662202D+01  1  2 12  7  6  1       21 0.308018422489D+00
-.161755858098D-03 0.000000000000D+00 -.967827864237D-04 0.120782744421D-01 0.000000000000D+00  6 2 2 -13 13 2 2 4 0.10248446D-02 0.32341340D+00 0.11199750D+04 0.44110710D+03 0.33069217D+04 0.13817086D+01  1  2  5  7  6  1       21 -.139908878747D+01
0.605942685527D-04 0.000000000000D+00 0.000000000000D+00 0.118090075200D-01 0.000000000000D+00  6 -4 2 -13 13 2 -4 4 0.10157896D-02 0.32341340D+00 0.17501419D+04 0.55594350D+03 0.34925965D+04 0.13662202D+01  1  2 12  8  6  1       21 0.219243446317D+00
0.605942685527D-04 0.000000000000D+00 0.000000000000D+00 0.118090075200D-01 0.000000000000D+00  6 -4 2 -13 13 2 -4 4 0.10157896D-02 0.32341340D+00 0.17501419D+04 0.55594350D+03 0.34925965D+04 0.13662202D+01  1  2 12  8  6  1       21 0.219243446317D+00
-.161755858098D-03 0.000000000000D+00 -.967827864237D-04 0.120782744421D-01 0.000000000000D+00  6 -4 2 -13 13 2 -4 4 0.10248446D-02 0.32341340D+00 0.11199750D+04 0.44110710D+03 0.33069217D+04 0.13817086D+01  1  2  5  8  6  1       21 -.992971980929D+00
0.605942685527D-04 0.000000000000D+00 0.000000000000D+00 0.118090075200D-01 0.000000000000D+00  6 4 2 -13 13 2 4 4 0.10157896D-02 0.32341340D+00 0.17501419D+04 0.55594350D+03 0.34925965D+04 0.13662202D+01  1  2 12  9  6  1       21 0.219271169459D+00
0.605942685527D-04 0.000000000000D+00 0.000000000000D+00 0.118090075200D-01 0.000000000000D+00  6 4 2 -13 13 2 4 4 0.10157896D-02 0.32341340D+00 0.17501419D+04 0.55594350D+03 0.34925965D+04 0.13662202D+01  1  2 12  9  6  1       21 0.219271169459D+00
-.161755858098D-03 0.000000000000D+00 -.967827864237D-04 0.120782744421D-01 0.000000000000D+00  6 4 2 -13 13 2 4 4 0.10248446D-02 0.32341340D+00 0.11199750D+04 0.44110710D+03 0.33069217D+04 0.13817086D+01  1  2  5  9  6  1       21 -.993097629351D+00
  </mgrwgt>
  </event>
  <event npLO=' -1 ' npNLO=' 1 '>
  7     66 0.13416416E+02 0.11460991E+02 0.75467711E-02 0.15692047E+00
        1 -1    0    0  501    0 0.00000000E+00 0.00000000E+00 0.35280833E+02 0.35280833E+02 0.00000000E+00 0.0000E+00 0.9000E+01
        2 -1    0    0  502    0 0.00000000E+00 0.00000000E+00 -.82143722E+03 0.82143722E+03 0.00000000E+00 0.0000E+00 0.9000E+01
       23  2    1    2    0    0 -.17992844E+02 -.23813794E+02 -.79552940E+03 0.80055491E+03 0.84441101E+02 0.0000E+00 0.0000E+00
      -13  1    3    3    0    0 0.11420723E+02 -.31042582E+02 -.68926351E+03 0.69005671E+03 0.00000000E+00 0.0000E+00 0.9000E+01
       13  1    3    3    0    0 -.29413566E+02 0.72287880E+01 -.10626589E+03 0.11049820E+03 0.00000000E+00 0.0000E+00 0.9000E+01
        2  1    1    2  501    0 0.10056366E+02 0.78400855E+01 -.18860984E+02 0.22766953E+02 0.00000000E+00 0.0000E+00 0.9000E+01
        1  1    1    2  502    0 0.79364772E+01 0.15973708E+02 0.28233996E+02 0.33396190E+02 0.00000000E+00 0.0000E+00 0.9000E+01
#aMCatNLO 2  0  0  1  2 0.17868732D+02 0.00000000D+00  -5  6  0 0.00000000D+00 0.00000000D+00 0.00000000D+00 0.00000000D+00 0.00000000D+00
  <mgrwgt>
 0.8269847756D+01    1    2    0
 0.598102146993608D+02 0.000000000000000D+00 0.000000000000000D+00 0.598102146993608D+02
 0.598102146993608D+02 0.000000000000000D+00 0.000000000000000D+00 -.598102146993608D+02
 0.535358063306795D+02 0.150443701079943D+02 -.237492845929307D+02 -.455600808697010D+02
 0.360782617953272D+02 -.270138703930111D+02 0.120586438700847D+02 0.206514137185867D+02
 0.300063612727149D+02 0.119695002850168D+02 0.116906407228460D+02 0.249086671511144D+02
 0.000000000000000D+00 0.000000000000000D+00 0.000000000000000D+00 0.000000000000000D+00
 0.477744738146387D+03 0.000000000000000D+00 0.000000000000000D+00 0.477744738146387D+03
 0.606620795183631D+02 0.000000000000000D+00 0.000000000000000D+00 -.606620795183631D+02
 0.563009392463868D+02 0.114207226720437D+02 -.310425818001646D+02 -.455600808697010D+02
 0.366591617707542D+02 -.294135662053561D+02 0.722878802021646D+01 0.206514137185867D+02
 0.279828365872353D+02 0.100563663239363D+02 0.784008549581625D+01 0.249086671511144D+02
 0.417463880060374D+03 0.793647720937617D+01 0.159737082841318D+02 0.417082658628024D+03
0.304315979394D-02 0.000000000000D+00 0.000000000000D+00 0.118245521548D-03 0.292508302870D-04  6 1 2 -13 13 2 1 4 0.54278205D-02 0.12637496D+00 0.22068234D+04 0.31947112D+03 0.27136706D+04 0.14042510D+01  1  2  1  5  6  1       21 0.826984775560D+01
  </mgrwgt>
  </event>
  <event npLO=' -1 ' npNLO=' 1 '>
  6     66 0.13416416E+02 0.31990348E+02 0.75467711E-02 0.13745825E+00
       21 -1    0    0  501  502 0.00000000E+00 0.00000000E+00 0.25876360E+03 0.25876360E+03 0.00000000E+00 0.0000E+00 0.9000E+01
        2 -1    0    0  502    0 0.00000000E+00 0.00000000E+00 -.21355398E+02 0.21355398E+02 0.00000000E+00 0.0000E+00 0.9000E+01
       23  2    1    2    0    0 -.30815475E+02 0.85900437E+01 0.98392423E+02 0.13746988E+03 0.90518054E+02 0.0000E+00 0.0000E+00
      -11  1    3    3    0    0 -.59974885E+02 -.10859770E+02 0.61892484E+02 0.86865419E+02 0.00000000E+00 0.0000E+00 0.9000E+01
       11  1    3    3    0    0 0.29159410E+02 0.19449814E+02 0.36499938E+02 0.50604466E+02 0.00000000E+00 0.0000E+00 0.9000E+01
        2  1    1    2  501    0 0.30815475E+02 -.85900437E+01 0.13901578E+03 0.14264911E+03 0.00000000E+00 0.0000E+00 0.9000E+01
#aMCatNLO 1  0  0  1  2 0.30774062D+02 0.00000000D+00  -5  6  0 0.00000000D+00 0.00000000D+00 0.00000000D+00 0.00000000D+00 0.00000000D+00
  <mgrwgt>
 0.4567197626D+03   38    2    0
 0.743370677366617D+02 0.000000000000000D+00 0.000000000000000D+00 0.743370677366617D+02
 0.743370677366617D+02 0.000000000000000D+00 0.000000000000000D+00 -.743370677366617D+02
 0.648321969049678D+02 -.599748851647171D+02 -.108597703183731D+02 -.220973367996166D+02
 0.370601616859417D+02 0.291594098919470D+02 0.194498140179710D+02 -.120369902221404D+02
 0.467817768824139D+02 0.308154752727701D+02 -.859004369959792D+01 0.341343270217570D+02
 0.000000000000000D+00 0.000000000000000D+00 0.000000000000000D+00 0.000000000000000D+00
 0.870707615715923D+02 0.000000000000000D+00 0.000000000000000D+00 0.870707615715923D+02
 0.856651104249219D+02 0.000000000000000D+00 0.000000000000000D+00 -.856651104249219D+02
 0.744968043986709D+02 -.695604525908764D+02 -.149273241852175D+02 -.220973367996166D+02
 0.322997146836035D+02 0.243875837438399D+02 0.174249302486834D+02 -.120369902221404D+02
 0.435477712427783D+02 0.246009760225992D+02 -.112271135079590D+02 0.341343270217570D+02
 0.223915816714616D+02 0.205718928244373D+02 0.872950744449318D+01 0.140565114667043D+01
0.340188104563D-02 0.000000000000D+00 0.000000000000D+00 0.877816607915D-03 0.000000000000D+00  6 21 2 -11 11 2 21 2 0.39809785D-01 0.32854458D-02 0.40954506D+04 0.10233824D+04 0.40956824D+04 0.13278289D+01  1  2  2  1  6  1       21 0.129088819152D+03
-.685486329743D-04 0.165160419282D-03 0.749435788399D-05 0.877816607915D-03 0.000000000000D+00  6 21 2 -11 11 2 21 4 0.39809785D-01 0.32854458D-02 0.40954506D+04 0.10233824D+04 0.40956824D+04 0.13278289D+01  1  2  3  1  6  1       21 -.199098126291D+02
0.269762822267D-03 0.000000000000D+00 0.000000000000D+00 0.877816607915D-03 0.000000000000D+00  6 21 2 -11 11 2 21 4 0.39809785D-01 0.32854458D-02 0.40954506D+04 0.10233824D+04 0.40956824D+04 0.13278289D+01  1  2 15  1  6  1       21 0.180482795284D+02
0.186046085768D-02 0.000000000000D+00 0.000000000000D+00 0.860003595286D-03 0.000000000000D+00  6 21 2 -11 11 2 21 4 0.53734759D-01 0.32854458D-02 0.56630354D+04 0.12862916D+04 0.44375064D+04 0.13142874D+01  1  2 12  1  6  1       21 0.654625023340D+02
0.186046085768D-02 0.000000000000D+00 0.000000000000D+00 0.860003595286D-03 0.000000000000D+00  6 21 2 -11 11 2 21 4 0.53734759D-01 0.32854458D-02 0.56630354D+04 0.12862916D+04 0.44375064D+04 0.13142874D+01  1  2 12  1  6  1       21 0.654625023340D+02
-.400103910814D-03 0.000000000000D+00 0.000000000000D+00 0.877816607915D-03 0.000000000000D+00  6 21 2 -11 11 2 21 4 0.39809785D-01 0.32854458D-02 0.40954506D+04 0.10233824D+04 0.40956824D+04 0.13278289D+01  1  2  4  1  6  1       21 -.267686524113D+02
-.896892187413D-02 0.000000000000D+00 -.352996986201D-02 0.877816607915D-03 0.000000000000D+00  6 21 2 -11 11 2 21 4 0.53027880D-01 0.32854458D-02 0.40954506D+04 0.10233824D+04 0.40956824D+04 0.13278289D+01  1  2  5  1  6  1       21 -.337327190982D+03
0.856179201895D-02 0.000000000000D+00 0.301094654911D-02 0.877816607915D-03 0.000000000000D+00  6 21 2 -11 11 2 21 4 0.39809785D-01 0.32854458D-02 0.40954506D+04 0.10233824D+04 0.40956824D+04 0.13278289D+01  1  2  6  1  6  1       21 0.572831681870D+03
0.175121208040D-03 0.000000000000D+00 0.000000000000D+00 0.860003595286D-03 0.000000000000D+00  6 -1 2 -11 11 2 -1 4 0.53734759D-01 0.32854458D-02 0.56630354D+04 0.12862916D+04 0.44375064D+04 0.13142874D+01  1  2 12  4  6  1       21 0.669085819135D+00
0.175121208040D-03 0.000000000000D+00 0.000000000000D+00 0.860003595286D-03 0.000000000000D+00  6 -3 2 -11 11 2 -3 4 0.53734759D-01 0.32854458D-02 0.56630354D+04 0.12862916D+04 0.44375064D+04 0.13142874D+01  1  2 12  4  6  1       21 0.373205995423D+00
0.175121208040D-03 0.000000000000D+00 0.000000000000D+00 0.860003595286D-03 0.000000000000D+00  6 -5 2 -11 11 2 -5 4 0.53734759D-01 0.32854458D-02 0.56630354D+04 0.12862916D+04 0.44375064D+04 0.13142874D+01  1  2 12  4  6  1       21 0.136590883962D+00
0.175121208040D-03 0.000000000000D+00 0.000000000000D+00 0.860003595286D-03 0.000000000000D+00  6 -1 2 -11 11 2 -1 4 0.53734759D-01 0.32854458D-02 0.56630354D+04 0.12862916D+04 0.44375064D+04 0.13142874D+01  1  2 12  4  6  1       21 0.669085819135D+00
0.175121208040D-03 0.000000000000D+00 0.000000000000D+00 0.860003595286D-03 0.000000000000D+00  6 -3 2 -11 11 2 -3 4 0.53734759D-01 0.32854458D-02 0.56630354D+04 0.12862916D+04 0.44375064D+04 0.13142874D+01  1  2 12  4  6  1       21 0.373205995423D+00
0.175121208040D-03 0.000000000000D+00 0.000000000000D+00 0.860003595286D-03 0.000000000000D+00  6 -5 2 -11 11 2 -5 4 0.53734759D-01 0.32854458D-02 0.56630354D+04 0.12862916D+04 0.44375064D+04 0.13142874D+01  1  2 12  4  6  1       21 0.136590883962D+00
-.611677063788D-03 0.000000000000D+00 -.314313712908D-03 0.877816607915D-03 0.000000000000D+00  6 -1 2 -11 11 2 -1 4 0.53027880D-01 0.32854458D-02 0.40954506D+04 0.10233824D+04 0.40956824D+04 0.13278289D+01  1  2  5  4  6  1       21 -.248188266991D+01
-.611677063788D-03 0.000000000000D+00 -.314313712908D-03 0.877816607915D-03 0.000000000000D+00  6 -3 2 -11 11 2 -3 4 0.53027880D-01 0.32854458D-02 0.40954506D+04 0.10233824D+04 0.40956824D+04 0.13278289D+01  1  2  5  4  6  1       21 -.139033281081D+01
-.611677063788D-03 0.000000000000D+00 -.314313712908D-03 0.877816607915D-03 0.000000000000D+00  6 -5 2 -11 11 2 -5 4 0.53027880D-01 0.32854458D-02 0.40954506D+04 0.10233824D+04 0.40956824D+04 0.13278289D+01  1  2  5  4  6  1       21 -.506154939717D+00
0.175121208040D-03 0.000000000000D+00 0.000000000000D+00 0.860003595286D-03 0.000000000000D+00  6 1 2 -11 11 2 1 4 0.53734759D-01 0.32854458D-02 0.56630354D+04 0.12862916D+04 0.44375064D+04 0.13142874D+01  1  2 12  5  6  1       21 0.136661780210D+01
0.175121208040D-03 0.000000000000D+00 0.000000000000D+00 0.860003595286D-03 0.000000000000D+00  6 3 2 -11 11 2 3 4 0.53734759D-01 0.32854458D-02 0.56630354D+04 0.12862916D+04 0.44375064D+04 0.13142874D+01  1  2 12  5  6  1       21 0.391278005645D+00
0.175121208040D-03 0.000000000000D+00 0.000000000000D+00 0.860003595286D-03 0.000000000000D+00  6 5 2 -11 11 2 5 4 0.53734759D-01 0.32854458D-02 0.56630354D+04 0.12862916D+04 0.44375064D+04 0.13142874D+01  1  2 12  5  6  1       21 0.136062041377D+00
0.175121208040D-03 0.000000000000D+00 0.000000000000D+00 0.860003595286D-03 0.000000000000D+00  6 1 2 -11 11 2 1 4 0.53734759D-01 0.32854458D-02 0.56630354D+04 0.12862916D+04 0.44375064D+04 0.13142874D+01  1  2 12  5  6  1       21 0.136661780210D+01
0.175121208040D-03 0.000000000000D+00 0.000000000000D+00 0.860003595286D-03 0.000000000000D+00  6 3 2 -11 11 2 3 4 0.53734759D-01 0.32854458D-02 0.56630354D+04 0.12862916D+04 0.44375064D+04 0.13142874D+01  1  2 12  5  6  1       21 0.391278005645D+00
0.175121208040D-03 0.000000000000D+00 0.000000000000D+00 0.860003595286D-03 0.000000000000D+00  6 5 2 -11 11 2 5 4 0.53734759D-01 0.32854458D-02 0.56630354D+04 0.12862916D+04 0.44375064D+04 0.13142874D+01  1  2 12  5  6  1       21 0.136062041377D+00
-.611677063788D-03 0.000000000000D+00 -.314313712908D-03 0.877816607915D-03 0.000000000000D+00  6 1 2 -11 11 2 1 4 0.53027880D-01 0.32854458D-02 0.40954506D+04 0.10233824D+04 0.40956824D+04 0.13278289D+01  1  2  5  5  6  1       21 -.503498686048D+01
-.611677063788D-03 0.000000000000D+00 -.314313712908D-03 0.877816607915D-03 0.000000000000D+00  6 3 2 -11 11 2 3 4 0.53027880D-01 0.32854458D-02 0.40954506D+04 0.10233824D+04 0.40956824D+04 0.13278289D+01  1  2  5  5  6  1       21 -.145459837687D+01
-.611677063788D-03 0.000000000000D+00 -.314313712908D-03 0.877816607915D-03 0.000000000000D+00  6 5 2 -11 11 2 5 4 0.53027880D-01 0.32854458D-02 0.40954506D+04 0.10233824D+04 0.40956824D+04 0.13278289D+01  1  2  5  5  6  1       21 -.504207707167D+00
0.175121208040D-03 0.000000000000D+00 0.000000000000D+00 0.860003595286D-03 0.000000000000D+00  6 -2 2 -11 11 2 -2 4 0.53734759D-01 0.32854458D-02 0.56630354D+04 0.12862916D+04 0.44375064D+04 0.13142874D+01  1  2 12  6  6  1       21 0.558787291481D+00
0.175121208040D-03 0.000000000000D+00 0.000000000000D+00 0.860003595286D-03 0.000000000000D+00  6 -2 2 -11 11 2 -2 4 0.53734759D-01 0.32854458D-02 0.56630354D+04 0.12862916D+04 0.44375064D+04 0.13142874D+01  1  2 12  6  6  1       21 0.558787291481D+00
-.611677063788D-03 0.000000000000D+00 -.314313712908D-03 0.877816607915D-03 0.000000000000D+00  6 -2 2 -11 11 2 -2 4 0.53027880D-01 0.32854458D-02 0.40954506D+04 0.10233824D+04 0.40956824D+04 0.13278289D+01  1  2  5  6  6  1       21 -.207639167947D+01
0.175121208040D-03 0.000000000000D+00 0.000000000000D+00 0.860003595286D-03 0.000000000000D+00  6 2 2 -11 11 2 2 4 0.53734759D-01 0.32854458D-02 0.56630354D+04 0.12862916D+04 0.44375064D+04 0.13142874D+01  1  2 12  7  6  1       21 0.193204051721D+01
0.175121208040D-03 0.000000000000D+00 0.000000000000D+00 0.860003595286D-03 0.000000000000D+00  6 2 2 -11 11 2 2 4 0.53734759D-01 0.32854458D-02 0.56630354D+04 0.12862916D+04 0.44375064D+04 0.13142874D+01  1  2 12  7  6  1       21 0.193204051721D+01
-.611677063788D-03 0.000000000000D+00 -.314313712908D-03 0.877816607915D-03 0.000000000000D+00  6 2 2 -11 11 2 2 4 0.53027880D-01 0.32854458D-02 0.40954506D+04 0.10233824D+04 0.40956824D+04 0.13278289D+01  1  2  5  7  6  1       21 -.709586474842D+01
0.175121208040D-03 0.000000000000D+00 0.000000000000D+00 0.860003595286D-03 0.000000000000D+00  6 -4 2 -11 11 2 -4 4 0.53734759D-01 0.32854458D-02 0.56630354D+04 0.12862916D+04 0.44375064D+04 0.13142874D+01  1  2 12  8  6  1       21 0.219202407625D+00
0.175121208040D-03 0.000000000000D+00 0.000000000000D+00 0.860003595286D-03 0.000000000000D+00  6 -4 2 -11 11 2 -4 4 0.53734759D-01 0.32854458D-02 0.56630354D+04 0.12862916D+04 0.44375064D+04 0.13142874D+01  1  2 12  8  6  1       21 0.219202407625D+00
-.611677063788D-03 0.000000000000D+00 -.314313712908D-03 0.877816607915D-03 0.000000000000D+00  6 -4 2 -11 11 2 -4 4 0.53027880D-01 0.32854458D-02 0.40954506D+04 0.10233824D+04 0.40956824D+04 0.13278289D+01  1  2  5  8  6  1       21 -.815364213556D+00
0.175121208040D-03 0.000000000000D+00 0.000000000000D+00 0.860003595286D-03 0.000000000000D+00  6 4 2 -11 11 2 4 4 0.53734759D-01 0.32854458D-02 0.56630354D+04 0.12862916D+04 0.44375064D+04 0.13142874D+01  1  2 12  9  6  1       21 0.217650614645D+00
0.175121208040D-03 0.000000000000D+00 0.000000000000D+00 0.860003595286D-03 0.000000000000D+00  6 4 2 -11 11 2 4 4 0.53734759D-01 0.32854458D-02 0.56630354D+04 0.12862916D+04 0.44375064D+04 0.13142874D+01  1  2 12  9  6  1       21 0.217650614645D+00
-.611677063788D-03 0.000000000000D+00 -.314313712908D-03 0.877816607915D-03 0.000000000000D+00  6 4 2 -11 11 2 4 4 0.53027880D-01 0.32854458D-02 0.40954506D+04 0.10233824D+04 0.40956824D+04 0.13278289D+01  1  2  5  9  6  1       21 -.809625355042D+00
  </mgrwgt>
  </event>
  <event npLO=' -1 ' npNLO=' 1 '>
  7     66 0.13416416E+02 0.61943515E+02 0.75467711E-02 0.12430959E+00
       21 -1    0    0  501  502 0.00000000E+00 0.00000000E+00 0.72316209E+01 0.72316209E+01 0.00000000E+00 0.0000E+00 0.9000E+01
        2 -1    0    0  502    0 -.00000000E+00 -.00000000E+00 -.12807931E+04 0.12807931E+04 0.00000000E+00 0.0000E+00 0.9000E+01
       23  2    1    2    0    0 -.13556945E+02 0.61123828E+02 -.68244955E+03 0.69171842E+03 0.93899234E+02 0.0000E+00 0.0000E+00
      -11  1    3    3    0    0 0.25351601E+02 0.19236934E+02 -.73534027E+02 0.80125005E+02 0.00000000E+00 0.0000E+00 0.9000E+01
       11  1    3    3    0    0 -.38908546E+02 0.41886895E+02 -.60891553E+03 0.61159342E+03 0.00000000E+00 0.0000E+00 0.9000E+01
        2  1    1    2  503    0 0.24472766E+02 -.62876587E+02 -.51097663E+03 0.51541197E+03 0.00000000E+00 0.0000E+00 0.9000E+01
       21  1    1    2  501  503 -.10915822E+02 0.17527590E+01 -.80135292E+02 0.80894329E+02 0.00000000E+00 0.0000E+00 0.9000E+01
#aMCatNLO 2  0  0  5  1 0.16461631D+02 0.00000000D+00  -5  6  0 0.00000000D+00 0.00000000D+00 0.00000000D+00 0.00000000D+00 0.00000000D+00
  <mgrwgt>
 0.8929491109D+02    2    2    0
 0.962403766719434D+02 0.000000000000000D+00 0.000000000000000D+00 0.962403766719434D+02
 0.962403766719434D+02 -.000000000000000D+00 -.000000000000000D+00 -.962403766719434D+02
 0.514508559409554D+02 0.244287535540210D+02 0.233977497762159D+02 0.387681813123010D+02
 0.676932812837294D+02 -.401079005996736D+02 0.472943939037042D+02 -.271473193101287D+02
 0.733366161192019D+02 0.156791470456526D+02 -.706921436799201D+02 -.116208620021723D+02
 0.000000000000000D+00 -.000000000000000D+00 0.000000000000000D+00 0.000000000000000D+00
 0.962403766719434D+02 0.000000000000000D+00 0.000000000000000D+00 0.962403766719434D+02
 0.962403766719434D+02 -.000000000000000D+00 -.000000000000000D+00 -.962403766719434D+02
 0.496303272613975D+02 0.253516008005182D+02 0.192369335051490D+02 0.380841976447326D+02
 0.636743096036332D+02 -.389085456288609D+02 0.418868947793541D+02 -.280362413010286D+02
 0.680754035487611D+02 0.244727663392712D+02 -.628765872451435D+02 -.904870446163270D+01
 0.111007129300950D+02 -.109158215109285D+02 0.175275896064023D+01 -.999251882071280D+00
-.110376301634D-02 0.000000000000D+00 0.000000000000D+00 0.651605212580D-04 0.000000000000D+00  6 21 2 -11 11 2 21 4 0.11125571D-02 0.19704509D+00 0.70157991D+04 0.42520504D+04 0.80575726D+04 0.12498482D+01  1  2 13  3  6  5        2 -.169287290110D+03
0.168597105063D-02 0.000000000000D+00 0.000000000000D+00 0.640891286798D-04 0.688834220829D-05  6 21 2 -11 11 2 21 4 0.11125571D-02 0.19704509D+00 0.70157991D+04 0.42520504D+04 0.80575726D+04 0.12498482D+01  1  2  1  3  6  5        2 0.258582201199D+03
  </mgrwgt>
  </event>
  <event npLO=' -1 ' npNLO=' 1 '>
  7     66 0.13416416E+02 0.14313281E+02 0.75467711E-02 0.14909454E+00
       21 -1    0    0  501  503 0.00000000E+00 0.00000000E+00 0.18463917E+03 0.18463917E+03 0.00000000E+00 0.0000E+00 0.9000E+01
        2 -1    0    0  502    0 0.00000000E+00 0.00000000E+00 -.68988065E+03 0.68988065E+03 0.00000000E+00 0.0000E+00 0.9000E+01
       23  2    1    2    0    0 -.10097325E+02 -.54984878E+01 -.67359232E+03 0.67985983E+03 0.91381547E+02 0.0000E+00 0.0000E+00
      -11  1    3    3    0    0 0.82225284E+01 -.46444962E+02 -.33135026E+03 0.33469051E+03 0.00000000E+00 0.0000E+00 0.9000E+01
       11  1    3    3    0    0 -.18319853E+02 0.40946474E+02 -.34224206E+03 0.34516931E+03 0.00000000E+00 0.0000E+00 0.9000E+01
        2  1    1    2  501    0 -.11724402E+02 0.13201914E+02 -.61003187E+01 0.18680632E+02 0.00000000E+00 0.0000E+00 0.9000E+01
       21  1    1    2  502  503 0.21821727E+02 -.77034259E+01 0.17445115E+03 0.17597936E+03 0.00000000E+00 0.0000E+00 0.9000E+01
#aMCatNLO 2  0  0  1  2 0.13539650D+02 0.00000000D+00  -5  6  0 0.00000000D+00 0.00000000D+00 0.00000000D+00 0.00000000D+00 0.00000000D+00
  <mgrwgt>
 0.3251858517D+04    1    2    0
 0.797514343960635D+02 0.000000000000000D+00 0.000000000000000D+00 0.797514343960635D+02
 0.797514343960635D+02 0.000000000000000D+00 0.000000000000000D+00 -.797514343960635D+02
 0.571509993357498D+02 0.157335717953502D+02 -.490964829828715D+02 -.246622546079640D+02
 0.487773533094728D+02 -.114137607603744D+02 0.385085108587572D+02 -.276776236809278D+02
 0.535745161469044D+02 -.431981103497583D+01 0.105879721241143D+02 0.523398782888917D+02
 0.000000000000000D+00 0.000000000000000D+00 -.000000000000000D+00 0.000000000000000D+00
 0.157889974284423D+04 0.000000000000000D+00 0.000000000000000D+00 0.157889974284423D+04
 0.806757931672901D+02 0.000000000000000D+00 0.000000000000000D+00 -.806757931672901D+02
 0.532256637065851D+02 0.822252840873920D+01 -.464449620650714D+02 -.246622546079640D+02
 0.527094075086259D+02 -.183198534312407D+02 0.409464742993239D+02 -.276776236809278D+02
 0.552378039830288D+02 -.117244021411616D+02 0.132019136493099D+02 0.523398782888917D+02
 0.149840266081328D+04 0.218217271636631D+02 -.770342588356236D+01 0.149822394967694D+04
0.931797427784D+00 0.000000000000D+00 0.000000000000D+00 0.120732356970D-01 0.242566202703D+00  6 21 2 -11 11 2 21 4 0.28406026D-01 0.10613548D+00 0.44104959D+04 0.13389489D+03 0.30122398D+04 0.14712659D+01  1  2  1  1  6  1       21 0.325185851654D+04
  </mgrwgt>
  </event>
  <event npLO=' -1 ' npNLO=' 1 '>
  6     66 0.13416416E+02 0.57554458E+02 0.75467711E-02 0.12673318E+00
       21 -1    0    0  501  502 0.00000000E+00 0.00000000E+00 0.20366523E+02 0.20366523E+02 0.00000000E+00 0.0000E+00 0.9000E+01
        2 -1    0    0  502    0 0.00000000E+00 0.00000000E+00 -.34312690E+03 0.34312690E+03 0.00000000E+00 0.0000E+00 0.9000E+01
       23  2    1    2    0    0 0.57199050E+02 -.63862603E+01 -.22628132E+03 0.25115143E+03 0.92527229E+02 0.0000E+00 0.0000E+00
      -11  1    3    3    0    0 -.25743541E+02 -.22600284E+01 -.49714243E+02 0.56029845E+02 0.00000000E+00 0.0000E+00 0.9000E+01
       11  1    3    3    0    0 0.82942590E+02 -.41262319E+01 -.17656708E+03 0.19512158E+03 0.00000000E+00 0.0000E+00 0.9000E+01
        2  1    1    2  501    0 -.57199050E+02 0.63862603E+01 -.96479054E+02 0.11234199E+03 0.00000000E+00 0.0000E+00 0.9000E+01
#aMCatNLO 1  0  0  1  5 0.14931084D+02 0.00000000D+00  -5  6  0 0.00000000D+00 0.00000000D+00 0.00000000D+00 0.00000000D+00 0.00000000D+00
  <mgrwgt>
 0.3753277598D+03   26    2    0
 0.835960644195876D+02 0.000000000000000D+00 0.000000000000000D+00 0.835960644195876D+02
 0.835960644195876D+02 0.000000000000000D+00 0.000000000000000D+00 -.835960644195876D+02
 0.258426787470199D+02 -.257435405463601D+02 -.226002839729342D+01 0.802284426729054D-01
 0.833565289327876D+02 0.829425904974932D+02 -.412623187609310D+01 -.719804194156420D+01
 0.579929211593678D+02 -.571990499511331D+02 0.638626027338652D+01 0.711781349889130D+01
 0.000000000000000D+00 -.000000000000000D+00 -.000000000000000D+00 -.000000000000000D+00
 0.883666850015328D+02 0.000000000000000D+00 0.000000000000000D+00 0.883666850015328D+02
 0.892737745726145D+02 0.000000000000000D+00 0.000000000000000D+00 -.892737745726145D+02
 0.244174401075457D+02 -.243627414887620D+02 -.163149378004375D+01 0.802284426729054D-01
 0.879668024164380D+02 0.876493659660532D+02 -.198372511427825D+01 -.719804194156420D+01
 0.551128416275036D+02 -.540916890012527D+02 0.780071946970657D+01 0.711781349889130D+01
 0.101433754226599D+02 -.919493547603847D+01 -.418550057538458D+01 -.907089571081710D+00
0.123735107186D-02 0.000000000000D+00 0.000000000000D+00 0.296284173737D-03 0.000000000000D+00  6 21 2 -11 11 2 21 2 0.31333113D-02 0.52788753D-01 0.69257494D+04 0.33125156D+04 0.69323477D+04 0.12624928D+01  1  2  2  1  6  1       21 0.121738899476D+03
-.108052983928D-03 0.600730651914D-04 0.272588948181D-05 0.296284173737D-03 0.000000000000D+00  6 21 2 -11 11 2 21 4 0.31333113D-02 0.52788753D-01 0.69257494D+04 0.33125156D+04 0.69323477D+04 0.12624928D+01  1  2  3  1  6  1       21 -.238921643546D+02
0.844679539736D-04 0.000000000000D+00 0.000000000000D+00 0.296284173737D-03 0.000000000000D+00  6 21 2 -11 11 2 21 4 0.31333113D-02 0.52788753D-01 0.69257494D+04 0.33125156D+04 0.69323477D+04 0.12624928D+01  1  2 15  1  6  1       21 0.132460460014D+02
0.117854807155D-02 0.000000000000D+00 0.000000000000D+00 0.290555446906D-03 0.000000000000D+00  6 21 2 -11 11 2 21 4 0.35370756D-02 0.52788753D-01 0.78183733D+04 0.42198008D+04 0.78427503D+04 0.12502280D+01  1  2 12  1  6  1       21 0.148240135403D+03
0.117854807155D-02 0.000000000000D+00 0.000000000000D+00 0.290555446906D-03 0.000000000000D+00  6 21 2 -11 11 2 21 4 0.35370756D-02 0.52788753D-01 0.78183733D+04 0.42198008D+04 0.78427503D+04 0.12502280D+01  1  2 12  1  6  1       21 0.148240135403D+03
-.236575242655D-03 0.000000000000D+00 0.000000000000D+00 0.296284173737D-03 0.000000000000D+00  6 21 2 -11 11 2 21 4 0.31333113D-02 0.52788753D-01 0.69257494D+04 0.33125156D+04 0.69323477D+04 0.12624928D+01  1  2  4  1  6  1       21 -.370991174709D+02
0.374833851920D-04 0.000000000000D+00 0.000000000000D+00 0.296040281495D-03 0.000000000000D+00  6 -1 2 -11 11 2 -1 4 0.35370756D-02 0.52788753D-01 0.78183733D+04 0.33461680D+04 0.69695250D+04 0.12619731D+01  1  2 12  4  6  1       21 0.291520223239D+00
0.374833851920D-04 0.000000000000D+00 0.000000000000D+00 0.296040281495D-03 0.000000000000D+00  6 -3 2 -11 11 2 -3 4 0.35370756D-02 0.52788753D-01 0.78183733D+04 0.33461680D+04 0.69695250D+04 0.12619731D+01  1  2 12  4  6  1       21 0.264854677366D+00
0.374833851920D-04 0.000000000000D+00 0.000000000000D+00 0.296040281495D-03 0.000000000000D+00  6 -5 2 -11 11 2 -5 4 0.35370756D-02 0.52788753D-01 0.78183733D+04 0.33461680D+04 0.69695250D+04 0.12619731D+01  1  2 12  4  6  1       21 0.137892377360D+00
0.374833851920D-04 0.000000000000D+00 0.000000000000D+00 0.296040281495D-03 0.000000000000D+00  6 -1 2 -11 11 2 -1 4 0.35370756D-02 0.52788753D-01 0.78183733D+04 0.33461680D+04 0.69695250D+04 0.12619731D+01  1  2 12  4  6  1       21 0.291520223239D+00
0.374833851920D-04 0.000000000000D+00 0.000000000000D+00 0.296040281495D-03 0.000000000000D+00  6 -3 2 -11 11 2 -3 4 0.35370756D-02 0.52788753D-01 0.78183733D+04 0.33461680D+04 0.69695250D+04 0.12619731D+01  1  2 12  4  6  1       21 0.264854677366D+00
0.374833851920D-04 0.000000000000D+00 0.000000000000D+00 0.296040281495D-03 0.000000000000D+00  6 -5 2 -11 11 2 -5 4 0.35370756D-02 0.52788753D-01 0.78183733D+04 0.33461680D+04 0.69695250D+04 0.12619731D+01  1  2 12  4  6  1       21 0.137892377360D+00
0.374833851920D-04 0.000000000000D+00 0.000000000000D+00 0.296040281495D-03 0.000000000000D+00  6 1 2 -11 11 2 1 4 0.35370756D-02 0.52788753D-01 0.78183733D+04 0.33461680D+04 0.69695250D+04 0.12619731D+01  1  2 12  5  6  1       21 0.316452971028D+00
0.374833851920D-04 0.000000000000D+00 0.000000000000D+00 0.296040281495D-03 0.000000000000D+00  6 3 2 -11 11 2 3 4 0.35370756D-02 0.52788753D-01 0.78183733D+04 0.33461680D+04 0.69695250D+04 0.12619731D+01  1  2 12  5  6  1       21 0.264495781637D+00
0.374833851920D-04 0.000000000000D+00 0.000000000000D+00 0.296040281495D-03 0.000000000000D+00  6 5 2 -11 11 2 5 4 0.35370756D-02 0.52788753D-01 0.78183733D+04 0.33461680D+04 0.69695250D+04 0.12619731D+01  1  2 12  5  6  1       21 0.137866773842D+00
0.374833851920D-04 0.000000000000D+00 0.000000000000D+00 0.296040281495D-03 0.000000000000D+00  6 1 2 -11 11 2 1 4 0.35370756D-02 0.52788753D-01 0.78183733D+04 0.33461680D+04 0.69695250D+04 0.12619731D+01  1  2 12  5  6  1       21 0.316452971028D+00
0.374833851920D-04 0.000000000000D+00 0.000000000000D+00 0.296040281495D-03 0.000000000000D+00  6 3 2 -11 11 2 3 4 0.35370756D-02 0.52788753D-01 0.78183733D+04 0.33461680D+04 0.69695250D+04 0.12619731D+01  1  2 12  5  6  1       21 0.264495781637D+00
0.374833851920D-04 0.000000000000D+00 0.000000000000D+00 0.296040281495D-03 0.000000000000D+00  6 5 2 -11 11 2 5 4 0.35370756D-02 0.52788753D-01 0.78183733D+04 0.33461680D+04 0.69695250D+04 0.12619731D+01  1  2 12  5  6  1       21 0.137866773842D+00
0.374833851920D-04 0.000000000000D+00 0.000000000000D+00 0.290555446906D-03 0.000000000000D+00  6 -2 2 -11 11 2 -2 4 0.35370756D-02 0.52788753D-01 0.78183733D+04 0.42198008D+04 0.78427503D+04 0.12502280D+01  1  2 12  6  6  1       21 0.280827848645D+00
0.374833851920D-04 0.000000000000D+00 0.000000000000D+00 0.290555446906D-03 0.000000000000D+00  6 -2 2 -11 11 2 -2 4 0.35370756D-02 0.52788753D-01 0.78183733D+04 0.42198008D+04 0.78427503D+04 0.12502280D+01  1  2 12  6  6  1       21 0.280827848645D+00
0.374833851920D-04 0.000000000000D+00 0.000000000000D+00 0.296659726991D-03 0.000000000000D+00  6 2 2 -11 11 2 2 4 0.35370756D-02 0.52788753D-01 0.78183733D+04 0.32614694D+04 0.68758727D+04 0.12632927D+01  1  2 12  7  6  1       21 0.334594084232D+00
0.374833851920D-04 0.000000000000D+00 0.000000000000D+00 0.296659726991D-03 0.000000000000D+00  6 2 2 -11 11 2 2 4 0.35370756D-02 0.52788753D-01 0.78183733D+04 0.32614694D+04 0.68758727D+04 0.12632927D+01  1  2 12  7  6  1       21 0.334594084232D+00
0.374833851920D-04 0.000000000000D+00 0.000000000000D+00 0.296040281495D-03 0.000000000000D+00  6 -4 2 -11 11 2 -4 4 0.35370756D-02 0.52788753D-01 0.78183733D+04 0.33461680D+04 0.69695250D+04 0.12619731D+01  1  2 12  8  6  1       21 0.199240792777D+00
0.374833851920D-04 0.000000000000D+00 0.000000000000D+00 0.296040281495D-03 0.000000000000D+00  6 -4 2 -11 11 2 -4 4 0.35370756D-02 0.52788753D-01 0.78183733D+04 0.33461680D+04 0.69695250D+04 0.12619731D+01  1  2 12  8  6  1       21 0.199240792777D+00
0.374833851920D-04 0.000000000000D+00 0.000000000000D+00 0.296040281495D-03 0.000000000000D+00  6 4 2 -11 11 2 4 4 0.35370756D-02 0.52788753D-01 0.78183733D+04 0.33461680D+04 0.69695250D+04 0.12619731D+01  1  2 12  9  6  1       21 0.199167150097D+00
0.374833851920D-04 0.000000000000D+00 0.000000000000D+00 0.296040281495D-03 0.000000000000D+00  6 4 2 -11 11 2 4 4 0.35370756D-02 0.52788753D-01 0.78183733D+04 0.33461680D+04 0.69695250D+04 0.12619731D+01  1  2 12  9  6  1       21 0.199167150097D+00
  </mgrwgt>
  </event>
  <event npLO=' -1 ' npNLO=' 1 '>
  6     66 0.13416416E+02 0.19023933E+02 0.75467711E-02 0.14010414E+00
       21 -1    0    0  501  502 0.00000000E+00 0.00000000E+00 0.35076680E+02 0.35076680E+02 0.00000000E+00 0.0000E+00 0.9000E+01
        2 -1    0    0  502    0 0.00000000E+00 0.00000000E+00 -.87560339E+02 0.87560339E+02 0.00000000E+00 0.0000E+00 0.9000E+01
       23  2    1    2    0    0 -.10257296E+02 0.16021796E+02 -.40945868E+02 0.10038773E+03 0.89661714E+02 0.0000E+00 0.0000E+00
      -13  1    3    3    0    0 -.42078226E+02 -.63684947E+01 -.44181709E+02 0.61344586E+02 0.00000000E+00 0.0000E+00 0.9000E+01
       13  1    3    3    0    0 0.31820930E+02 0.22390290E+02 0.32358414E+01 0.39043148E+02 0.00000000E+00 0.0000E+00 0.9000E+01
        2  1    1    2  501    0 0.10257296E+02 -.16021796E+02 -.11537792E+02 0.22249285E+02 0.00000000E+00 0.0000E+00 0.9000E+01
#aMCatNLO 1  0  0  1  2 0.38998177D+02 0.00000000D+00  -5  6  0 0.00000000D+00 0.00000000D+00 0.00000000D+00 0.00000000D+00 0.00000000D+00
  <mgrwgt>
 0.3611711579D+03   16    2    0
 0.554195450428050D+02 0.000000000000000D+00 0.000000000000000D+00 0.554195450428050D+02
 0.554195450428050D+02 0.000000000000000D+00 0.000000000000000D+00 -.554195450428050D+02
 0.469536459695186D+02 -.420782260801158D+02 -.636849472447305D+01 -.198370873548995D+02
 0.447311867799441D+02 0.318209304594320D+02 0.223902902374766D+02 0.220676767812064D+02
 0.191542573361473D+02 0.102572956206838D+02 -.160217955130036D+02 -.223058942630698D+01
 0.000000000000000D+00 0.000000000000000D+00 -.000000000000000D+00 0.000000000000000D+00
 0.746346792404161D+02 0.000000000000000D+00 0.000000000000000D+00 0.746346792404161D+02
 0.697512776403998D+02 0.000000000000000D+00 0.000000000000000D+00 -.697512776403998D+02
 0.513791276345870D+02 -.470866078730270D+02 0.539963709679302D+01 -.198370873548995D+02
 0.484247920504611D+02 0.270762182828648D+02 0.335388808714493D+02 0.220676767812064D+02
 0.148497541882965D+02 0.852536977375679D+01 -.119523110938760D+02 -.223058942630698D+01
 0.297322830074712D+02 0.114850198164054D+02 -.269862068743663D+02 0.488340160001632D+01
0.930604679270D-03 0.000000000000D+00 0.000000000000D+00 0.280180383695D-03 0.000000000000D+00  6 21 2 -13 13 2 21 2 0.53964123D-02 0.13470821D-01 0.25245695D+04 0.36191041D+03 0.30626062D+04 0.13954003D+01  1  2  2  1  6  1       21 0.202644550265D+03
-.470227391401D-04 0.451806094782D-04 0.205012592193D-05 0.280180383695D-03 0.000000000000D+00  6 21 2 -13 13 2 21 4 0.53964123D-02 0.13470821D-01 0.25245695D+04 0.36191041D+03 0.30626062D+04 0.13954003D+01  1  2  3  1  6  1       21 -.569801950339D+02
0.630667374996D-04 0.000000000000D+00 0.000000000000D+00 0.280180383695D-03 0.000000000000D+00  6 21 2 -13 13 2 21 4 0.53964123D-02 0.13470821D-01 0.25245695D+04 0.36191041D+03 0.30626062D+04 0.13954003D+01  1  2 15  1  6  1       21 0.267403873947D+02
-.176833146759D-04 0.000000000000D+00 0.000000000000D+00 0.280180383695D-03 0.000000000000D+00  6 21 2 -13 13 2 21 4 0.53964123D-02 0.13470821D-01 0.25245695D+04 0.36191041D+03 0.30626062D+04 0.13954003D+01  1  2  4  1  6  1       21 -.749775085255D+01
-.134013908249D-02 0.000000000000D+00 -.855555057713D-03 0.280180383695D-03 0.000000000000D+00  6 21 2 -13 13 2 21 4 0.91135586D-02 0.13470821D-01 0.25245695D+04 0.36191041D+03 0.30626062D+04 0.13954003D+01  1  2  5  1  6  1       21 -.276463664013D+03
0.107170815096D-02 0.000000000000D+00 0.521416592079D-03 0.280180383695D-03 0.000000000000D+00  6 21 2 -13 13 2 21 4 0.53964123D-02 0.13470821D-01 0.25245695D+04 0.36191041D+03 0.30626062D+04 0.13954003D+01  1  2  6  1  6  1       21 0.497117771200D+03
-.206816643107D-03 0.000000000000D+00 -.157214126329D-03 0.280180383695D-03 0.000000000000D+00  6 -1 2 -13 13 2 -1 4 0.91135586D-02 0.13470821D-01 0.25245695D+04 0.36191041D+03 0.30626062D+04 0.13954003D+01  1  2  5  4  6  1       21 -.303285636572D+01
-.206816643107D-03 0.000000000000D+00 -.157214126329D-03 0.280180383695D-03 0.000000000000D+00  6 -3 2 -13 13 2 -3 4 0.91135586D-02 0.13470821D-01 0.25245695D+04 0.36191041D+03 0.30626062D+04 0.13954003D+01  1  2  5  4  6  1       21 -.256225222066D+01
-.206816643107D-03 0.000000000000D+00 -.157214126329D-03 0.280180383695D-03 0.000000000000D+00  6 -5 2 -13 13 2 -5 4 0.91135586D-02 0.13470821D-01 0.25245695D+04 0.36191041D+03 0.30626062D+04 0.13954003D+01  1  2  5  4  6  1       21 -.111074559028D+01
-.206816643107D-03 0.000000000000D+00 -.157214126329D-03 0.280180383695D-03 0.000000000000D+00  6 1 2 -13 13 2 1 4 0.91135586D-02 0.13470821D-01 0.25245695D+04 0.36191041D+03 0.30626062D+04 0.13954003D+01  1  2  5  5  6  1       21 -.360753940857D+01
-.206816643107D-03 0.000000000000D+00 -.157214126329D-03 0.280180383695D-03 0.000000000000D+00  6 3 2 -13 13 2 3 4 0.91135586D-02 0.13470821D-01 0.25245695D+04 0.36191041D+03 0.30626062D+04 0.13954003D+01  1  2  5  5  6  1       21 -.256335192721D+01
-.206816643107D-03 0.000000000000D+00 -.157214126329D-03 0.280180383695D-03 0.000000000000D+00  6 5 2 -13 13 2 5 4 0.91135586D-02 0.13470821D-01 0.25245695D+04 0.36191041D+03 0.30626062D+04 0.13954003D+01  1  2  5  5  6  1       21 -.110987367943D+01
-.206816643107D-03 0.000000000000D+00 -.157214126329D-03 0.280180383695D-03 0.000000000000D+00  6 -2 2 -13 13 2 -2 4 0.91135586D-02 0.13470821D-01 0.25245695D+04 0.36191041D+03 0.30626062D+04 0.13954003D+01  1  2  5  6  6  1       21 -.293527986826D+01
-.206816643107D-03 0.000000000000D+00 -.157214126329D-03 0.280180383695D-03 0.000000000000D+00  6 2 2 -13 13 2 2 4 0.91135586D-02 0.13470821D-01 0.25245695D+04 0.36191041D+03 0.30626062D+04 0.13954003D+01  1  2  5  7  6  1       21 -.401748018189D+01
-.206816643107D-03 0.000000000000D+00 -.157214126329D-03 0.280180383695D-03 0.000000000000D+00  6 -4 2 -13 13 2 -4 4 0.91135586D-02 0.13470821D-01 0.25245695D+04 0.36191041D+03 0.30626062D+04 0.13954003D+01  1  2  5  8  6  1       21 -.172659075004D+01
-.206816643107D-03 0.000000000000D+00 -.157214126329D-03 0.280180383695D-03 0.000000000000D+00  6 4 2 -13 13 2 4 4 0.91135586D-02 0.13470821D-01 0.25245695D+04 0.36191041D+03 0.30626062D+04 0.13954003D+01  1  2  5  9  6  1       21 -.172397102604D+01
  </mgrwgt>
  </event>
  <event npLO=' -1 ' npNLO=' 1 '>
  6     66 0.13416416E+02 0.24166285E+02 0.75467711E-02 0.14923568E+00
       21 -1    0    0  501  502 0.00000000E+00 0.00000000E+00 0.33092203E+03 0.33092203E+03 0.00000000E+00 0.0000E+00 0.9000E+01
        2 -1    0    0  502    0 0.00000000E+00 0.00000000E+00 -.38852382E+02 0.38852382E+02 0.00000000E+00 0.0000E+00 0.9000E+01
       23  2    1    2    0    0 0.55888581E+01 0.23511146E+02 0.21544234E+02 0.98171743E+02 0.92679706E+02 0.0000E+00 0.0000E+00
      -13  1    3    3    0    0 0.13839476E+02 0.57952678E+02 0.19518736E+02 0.62697887E+02 0.00000000E+00 0.0000E+00 0.9000E+01
       13  1    3    3    0    0 -.82506181E+01 -.34441532E+02 0.20254979E+01 0.35473856E+02 0.00000000E+00 0.0000E+00 0.9000E+01
        2  1    1    2  501    0 -.55888581E+01 -.23511146E+02 0.27052542E+03 0.27160267E+03 0.00000000E+00 0.0000E+00 0.9000E+01
#aMCatNLO 1  0  0  1  5 0.71857014D+01 0.00000000D+00  -5  6  0 0.00000000D+00 0.00000000D+00 0.00000000D+00 0.00000000D+00 0.00000000D+00
  <mgrwgt>
 0.4161987741D+03   49    2    0
 0.113389193213614D+03 0.000000000000000D+00 0.000000000000000D+00 0.113389193213614D+03
 0.113389193213614D+03 0.000000000000000D+00 0.000000000000000D+00 -.113389193213614D+03
 0.770939618057857D+02 0.138394762036822D+02 0.579526782146253D+02 -.489227445374006D+02
 0.552333850066304D+02 -.825061812748942D+01 -.344415319203664D+02 -.423843721055696D+02
 0.944510396148123D+02 -.558885807619280D+01 -.235111462942589D+02 0.913071166429702D+02
 0.000000000000000D+00 0.000000000000000D+00 0.000000000000000D+00 0.000000000000000D+00
 0.120544942338849D+03 0.000000000000000D+00 0.000000000000000D+00 0.120544942338849D+03
 0.114924618666510D+03 0.000000000000000D+00 0.000000000000000D+00 -.114924618666510D+03
 0.762966965216766D+02 0.117202575732836D+02 0.573618909160511D+02 -.489227445374006D+02
 0.557494981898580D+02 -.978393831980026D+01 -.348689847943977D+02 -.423843721055696D+02
 0.948255126468112D+02 -.820386996951247D+01 -.242401488568227D+02 0.913071166429702D+02
 0.859785364701296D+01 0.626755071602911D+01 0.174724273516921D+01 0.562032367233911D+01
0.265951559131D-02 0.000000000000D+00 0.000000000000D+00 0.298878112116D-02 0.000000000000D+00  6 21 2 -13 13 2 21 2 0.50911082D-01 0.59772895D-02 0.35500453D+04 0.58400933D+03 0.35966929D+04 0.13629929D+01  1  2  2  1  6  1       21 0.299878123874D+02
0.254934394576D-03 0.129118774071D-03 0.585892374600D-05 0.298878112116D-02 0.000000000000D+00  6 21 2 -13 13 2 21 4 0.50911082D-01 0.59772895D-02 0.35500453D+04 0.58400933D+03 0.35966929D+04 0.13629929D+01  1  2  3  1  6  1       21 0.460370478816D+00
0.248808694461D-03 0.000000000000D+00 0.000000000000D+00 0.298878112116D-02 0.000000000000D+00  6 21 2 -13 13 2 21 4 0.50911082D-01 0.59772895D-02 0.35500453D+04 0.58400933D+03 0.35966929D+04 0.13629929D+01  1  2 15  1  6  1       21 0.521188711285D+01
0.992068022392D-02 0.000000000000D+00 0.000000000000D+00 0.301709814008D-02 0.000000000000D+00  6 21 2 -13 13 2 21 4 0.54856875D-01 0.59772895D-02 0.40233616D+04 0.52951805D+03 0.35108561D+04 0.13694345D+01  1  2 12  1  6  1       21 0.181422292987D+03
0.992068022392D-02 0.000000000000D+00 0.000000000000D+00 0.301709814008D-02 0.000000000000D+00  6 21 2 -13 13 2 21 4 0.54856875D-01 0.59772895D-02 0.40233616D+04 0.52951805D+03 0.35108561D+04 0.13694345D+01  1  2 12  1  6  1       21 0.181422292987D+03
-.614403348268D-02 0.000000000000D+00 0.000000000000D+00 0.298878112116D-02 0.000000000000D+00  6 21 2 -13 13 2 21 4 0.50911082D-01 0.59772895D-02 0.35500453D+04 0.58400933D+03 0.35966929D+04 0.13629929D+01  1  2  4  1  6  1       21 -.128701326128D+03
-.515448418150D-01 0.000000000000D+00 -.848618127928D-02 0.298878112116D-02 0.000000000000D+00  6 21 2 -13 13 2 21 4 0.54686872D-01 0.59772895D-02 0.35500453D+04 0.58400933D+03 0.35966929D+04 0.13629929D+01  1  2  5  1  6  1       21 -.933279577477D+03
0.515941222678D-01 0.000000000000D+00 0.839993572814D-02 0.298878112116D-02 0.000000000000D+00  6 21 2 -13 13 2 21 4 0.50911082D-01 0.59772895D-02 0.35500453D+04 0.58400933D+03 0.35966929D+04 0.13629929D+01  1  2  6  1  6  1       21 0.108305804047D+04
0.148018445596D-03 0.000000000000D+00 0.000000000000D+00 0.298878112116D-02 0.759251819547D-03  6 21 2 -13 13 2 21 4 0.54123972D-01 0.60582291D-02 0.40233616D+04 0.52951805D+03 0.35108561D+04 0.13694345D+01  1  2 11  1  6  1       21 0.273676538046D+01
0.210886803321D-03 0.000000000000D+00 0.000000000000D+00 0.301709814008D-02 0.000000000000D+00  6 -1 2 -13 13 2 -1 4 0.54856875D-01 0.59772895D-02 0.40233616D+04 0.52951805D+03 0.35108561D+04 0.13694345D+01  1  2 12  4  6  1       21 0.419045744198D+00
0.210886803321D-03 0.000000000000D+00 0.000000000000D+00 0.301709814008D-02 0.000000000000D+00  6 -3 2 -13 13 2 -3 4 0.54856875D-01 0.59772895D-02 0.40233616D+04 0.52951805D+03 0.35108561D+04 0.13694345D+01  1  2 12  4  6  1       21 0.231032072397D+00
0.210886803321D-03 0.000000000000D+00 0.000000000000D+00 0.301709814008D-02 0.000000000000D+00  6 -5 2 -13 13 2 -5 4 0.54856875D-01 0.59772895D-02 0.40233616D+04 0.52951805D+03 0.35108561D+04 0.13694345D+01  1  2 12  4  6  1       21 0.826570446145D-01
0.210886803321D-03 0.000000000000D+00 0.000000000000D+00 0.301709814008D-02 0.000000000000D+00  6 -1 2 -13 13 2 -1 4 0.54856875D-01 0.59772895D-02 0.40233616D+04 0.52951805D+03 0.35108561D+04 0.13694345D+01  1  2 12  4  6  1       21 0.419045744198D+00
0.210886803321D-03 0.000000000000D+00 0.000000000000D+00 0.301709814008D-02 0.000000000000D+00  6 -3 2 -13 13 2 -3 4 0.54856875D-01 0.59772895D-02 0.40233616D+04 0.52951805D+03 0.35108561D+04 0.13694345D+01  1  2 12  4  6  1       21 0.231032072397D+00
0.210886803321D-03 0.000000000000D+00 0.000000000000D+00 0.301709814008D-02 0.000000000000D+00  6 -5 2 -13 13 2 -5 4 0.54856875D-01 0.59772895D-02 0.40233616D+04 0.52951805D+03 0.35108561D+04 0.13694345D+01  1  2 12  4  6  1       21 0.826570446145D-01
-.790661866249D-03 0.000000000000D+00 -.149415305442D-03 0.298878112116D-02 0.000000000000D+00  6 -1 2 -13 13 2 -1 4 0.54686872D-01 0.59772895D-02 0.35500453D+04 0.58400933D+03 0.35966929D+04 0.13629929D+01  1  2  5  4  6  1       21 -.155542628070D+01
-.790661866249D-03 0.000000000000D+00 -.149415305442D-03 0.298878112116D-02 0.000000000000D+00  6 -3 2 -13 13 2 -3 4 0.54686872D-01 0.59772895D-02 0.35500453D+04 0.58400933D+03 0.35966929D+04 0.13629929D+01  1  2  5  4  6  1       21 -.858929470278D+00
-.790661866249D-03 0.000000000000D+00 -.149415305442D-03 0.298878112116D-02 0.000000000000D+00  6 -5 2 -13 13 2 -5 4 0.54686872D-01 0.59772895D-02 0.35500453D+04 0.58400933D+03 0.35966929D+04 0.13629929D+01  1  2  5  4  6  1       21 -.308078684789D+00
0.100871864603D-04 0.000000000000D+00 0.000000000000D+00 0.298878112116D-02 0.188922583912D-04  6 -1 2 -13 13 2 -1 4 0.54123972D-01 0.60582291D-02 0.40233616D+04 0.52951805D+03 0.35108561D+04 0.13694345D+01  1  2 11  4  6  1       21 0.201748906796D-01
0.100871864603D-04 0.000000000000D+00 0.000000000000D+00 0.298878112116D-02 0.188922583912D-04  6 -3 2 -13 13 2 -3 4 0.54123972D-01 0.60582291D-02 0.40233616D+04 0.52951805D+03 0.35108561D+04 0.13694345D+01  1  2 11  4  6  1       21 0.111840226974D-01
0.100871864603D-04 0.000000000000D+00 0.000000000000D+00 0.298878112116D-02 0.188922583912D-04  6 -5 2 -13 13 2 -5 4 0.54123972D-01 0.60582291D-02 0.40233616D+04 0.52951805D+03 0.35108561D+04 0.13694345D+01  1  2 11  4  6  1       21 0.400768847413D-02
0.210886803321D-03 0.000000000000D+00 0.000000000000D+00 0.301709814008D-02 0.000000000000D+00  6 1 2 -13 13 2 1 4 0.54856875D-01 0.59772895D-02 0.40233616D+04 0.52951805D+03 0.35108561D+04 0.13694345D+01  1  2 12  5  6  1       21 0.864098408075D+00
0.210886803321D-03 0.000000000000D+00 0.000000000000D+00 0.301709814008D-02 0.000000000000D+00  6 3 2 -13 13 2 3 4 0.54856875D-01 0.59772895D-02 0.40233616D+04 0.52951805D+03 0.35108561D+04 0.13694345D+01  1  2 12  5  6  1       21 0.242839439510D+00
0.210886803321D-03 0.000000000000D+00 0.000000000000D+00 0.301709814008D-02 0.000000000000D+00  6 5 2 -13 13 2 5 4 0.54856875D-01 0.59772895D-02 0.40233616D+04 0.52951805D+03 0.35108561D+04 0.13694345D+01  1  2 12  5  6  1       21 0.823291246519D-01
0.210886803321D-03 0.000000000000D+00 0.000000000000D+00 0.301709814008D-02 0.000000000000D+00  6 1 2 -13 13 2 1 4 0.54856875D-01 0.59772895D-02 0.40233616D+04 0.52951805D+03 0.35108561D+04 0.13694345D+01  1  2 12  5  6  1       21 0.864098408075D+00
0.210886803321D-03 0.000000000000D+00 0.000000000000D+00 0.301709814008D-02 0.000000000000D+00  6 3 2 -13 13 2 3 4 0.54856875D-01 0.59772895D-02 0.40233616D+04 0.52951805D+03 0.35108561D+04 0.13694345D+01  1  2 12  5  6  1       21 0.242839439510D+00
0.210886803321D-03 0.000000000000D+00 0.000000000000D+00 0.301709814008D-02 0.000000000000D+00  6 5 2 -13 13 2 5 4 0.54856875D-01 0.59772895D-02 0.40233616D+04 0.52951805D+03 0.35108561D+04 0.13694345D+01  1  2 12  5  6  1       21 0.823291246519D-01
-.790661866249D-03 0.000000000000D+00 -.149415305442D-03 0.298878112116D-02 0.000000000000D+00  6 1 2 -13 13 2 1 4 0.54686872D-01 0.59772895D-02 0.35500453D+04 0.58400933D+03 0.35966929D+04 0.13629929D+01  1  2  5  5  6  1       21 -.320267122456D+01
-.790661866249D-03 0.000000000000D+00 -.149415305442D-03 0.298878112116D-02 0.000000000000D+00  6 3 2 -13 13 2 3 4 0.54686872D-01 0.59772895D-02 0.35500453D+04 0.58400933D+03 0.35966929D+04 0.13629929D+01  1  2  5  5  6  1       21 -.902444186064D+00
-.790661866249D-03 0.000000000000D+00 -.149415305442D-03 0.298878112116D-02 0.000000000000D+00  6 5 2 -13 13 2 5 4 0.54686872D-01 0.59772895D-02 0.35500453D+04 0.58400933D+03 0.35966929D+04 0.13629929D+01  1  2  5  5  6  1       21 -.306860386463D+00
0.100610878916D-04 0.000000000000D+00 0.000000000000D+00 0.298878112116D-02 0.188433784675D-04  6 1 2 -13 13 2 1 4 0.54123972D-01 0.60582291D-02 0.40233616D+04 0.52951805D+03 0.35108561D+04 0.13694345D+01  1  2 11  5  6  1       21 0.412173022869D-01
0.100610878916D-04 0.000000000000D+00 0.000000000000D+00 0.298878112116D-02 0.188433784675D-04  6 3 2 -13 13 2 3 4 0.54123972D-01 0.60582291D-02 0.40233616D+04 0.52951805D+03 0.35108561D+04 0.13694345D+01  1  2 11  5  6  1       21 0.117010844095D-01
0.100610878916D-04 0.000000000000D+00 0.000000000000D+00 0.298878112116D-02 0.188433784675D-04  6 5 2 -13 13 2 5 4 0.54123972D-01 0.60582291D-02 0.40233616D+04 0.52951805D+03 0.35108561D+04 0.13694345D+01  1  2 11  5  6  1       21 0.398161425599D-02
0.210886803321D-03 0.000000000000D+00 0.000000000000D+00 0.301709814008D-02 0.000000000000D+00  6 -2 2 -13 13 2 -2 4 0.54856875D-01 0.59772895D-02 0.40233616D+04 0.52951805D+03 0.35108561D+04 0.13694345D+01  1  2 12  6  6  1       21 0.348783685145D+00
0.210886803321D-03 0.000000000000D+00 0.000000000000D+00 0.301709814008D-02 0.000000000000D+00  6 -2 2 -13 13 2 -2 4 0.54856875D-01 0.59772895D-02 0.40233616D+04 0.52951805D+03 0.35108561D+04 0.13694345D+01  1  2 12  6  6  1       21 0.348783685145D+00
-.790661866249D-03 0.000000000000D+00 -.149415305442D-03 0.298878112116D-02 0.000000000000D+00  6 -2 2 -13 13 2 -2 4 0.54686872D-01 0.59772895D-02 0.35500453D+04 0.58400933D+03 0.35966929D+04 0.13629929D+01  1  2  5  6  6  1       21 -.129526568573D+01
0.132586099488D-04 0.000000000000D+00 0.000000000000D+00 0.298878112116D-02 0.462220499678D-04  6 -2 2 -13 13 2 -2 4 0.54123972D-01 0.60582291D-02 0.40233616D+04 0.52951805D+03 0.35108561D+04 0.13694345D+01  1  2 11  6  6  1       21 0.221147826244D-01
0.210886803321D-03 0.000000000000D+00 0.000000000000D+00 0.301709814008D-02 0.000000000000D+00  6 2 2 -13 13 2 2 4 0.54856875D-01 0.59772895D-02 0.40233616D+04 0.52951805D+03 0.35108561D+04 0.13694345D+01  1  2 12  7  6  1       21 0.122523516126D+01
0.210886803321D-03 0.000000000000D+00 0.000000000000D+00 0.301709814008D-02 0.000000000000D+00  6 2 2 -13 13 2 2 4 0.54856875D-01 0.59772895D-02 0.40233616D+04 0.52951805D+03 0.35108561D+04 0.13694345D+01  1  2 12  7  6  1       21 0.122523516126D+01
-.790661866249D-03 0.000000000000D+00 -.149415305442D-03 0.298878112116D-02 0.000000000000D+00  6 2 2 -13 13 2 2 4 0.54686872D-01 0.59772895D-02 0.35500453D+04 0.58400933D+03 0.35966929D+04 0.13629929D+01  1  2  5  7  6  1       21 -.453888306885D+01
0.328540976030D-04 0.000000000000D+00 0.000000000000D+00 0.298878112116D-02 0.578266269229D-04  6 2 2 -13 13 2 2 4 0.54123972D-01 0.60582291D-02 0.40233616D+04 0.52951805D+03 0.35108561D+04 0.13694345D+01  1  2 11  7  6  1       21 0.190317564898D+00
0.210886803321D-03 0.000000000000D+00 0.000000000000D+00 0.301709814008D-02 0.000000000000D+00  6 -4 2 -13 13 2 -4 4 0.54856875D-01 0.59772895D-02 0.40233616D+04 0.52951805D+03 0.35108561D+04 0.13694345D+01  1  2 12  8  6  1       21 0.134359853149D+00
0.210886803321D-03 0.000000000000D+00 0.000000000000D+00 0.301709814008D-02 0.000000000000D+00  6 -4 2 -13 13 2 -4 4 0.54856875D-01 0.59772895D-02 0.40233616D+04 0.52951805D+03 0.35108561D+04 0.13694345D+01  1  2 12  8  6  1       21 0.134359853149D+00
-.790661866249D-03 0.000000000000D+00 -.149415305442D-03 0.298878112116D-02 0.000000000000D+00  6 -4 2 -13 13 2 -4 4 0.54686872D-01 0.59772895D-02 0.35500453D+04 0.58400933D+03 0.35966929D+04 0.13629929D+01  1  2  5  8  6  1       21 -.500095306591D+00
0.101853655723D-04 0.000000000000D+00 0.000000000000D+00 0.298878112116D-02 0.190761377276D-04  6 -4 2 -13 13 2 -4 4 0.54123972D-01 0.60582291D-02 0.40233616D+04 0.52951805D+03 0.35108561D+04 0.13694345D+01  1  2 11  8  6  1       21 0.657602395860D-02
0.210886803321D-03 0.000000000000D+00 0.000000000000D+00 0.301709814008D-02 0.000000000000D+00  6 4 2 -13 13 2 4 4 0.54856875D-01 0.59772895D-02 0.40233616D+04 0.52951805D+03 0.35108561D+04 0.13694345D+01  1  2 12  9  6  1       21 0.133384905657D+00
0.210886803321D-03 0.000000000000D+00 0.000000000000D+00 0.301709814008D-02 0.000000000000D+00  6 4 2 -13 13 2 4 4 0.54856875D-01 0.59772895D-02 0.40233616D+04 0.52951805D+03 0.35108561D+04 0.13694345D+01  1  2 12  9  6  1       21 0.133384905657D+00
-.790661866249D-03 0.000000000000D+00 -.149415305442D-03 0.298878112116D-02 0.000000000000D+00  6 4 2 -13 13 2 4 4 0.54686872D-01 0.59772895D-02 0.35500453D+04 0.58400933D+03 0.35966929D+04 0.13629929D+01  1  2  5  9  6  1       21 -.496478263029D+00
0.102069955351D-04 0.000000000000D+00 0.000000000000D+00 0.298878112116D-02 0.191166484138D-04  6 4 2 -13 13 2 4 4 0.54123972D-01 0.60582291D-02 0.40233616D+04 0.52951805D+03 0.35108561D+04 0.13694345D+01  1  2 11  9  6  1       21 0.654261996968D-02
  </mgrwgt>
  </event>
  <event npLO=' -1 ' npNLO=' 1 '>
  6     66 0.13416416E+02 0.22075467E+02 0.75467711E-02 0.11909152E+00
       21 -1    0    0  501  502 0.00000000E+00 0.00000000E+00 0.60067084E+01 0.60067084E+01 0.00000000E+00 0.0000E+00 0.9000E+01
        4 -1    0    0  502    0 0.00000000E+00 0.00000000E+00 -.60483620E+03 0.60483620E+03 0.00000000E+00 0.0000E+00 0.9000E+01
       23  2    1    2    0    0 -.65936903E+01 0.21067736E+02 -.53138501E+03 0.53987753E+03 0.92792223E+02 0.0000E+00 0.0000E+00
      -13  1    3    3    0    0 0.15352551E+02 0.20257145E+01 -.48431076E+03 0.48455826E+03 0.00000000E+00 0.0000E+00 0.9000E+01
       13  1    3    3    0    0 -.21946242E+02 0.19042021E+02 -.47074255E+02 0.55319270E+02 0.00000000E+00 0.0000E+00 0.9000E+01
        4  1    1    2  501    0 0.65936903E+01 -.21067736E+02 -.67444477E+02 0.70965370E+02 0.00000000E+00 0.0000E+00 0.9000E+01
#aMCatNLO 1  0  0  2  2 0.12363695D+03 0.00000000D+00  -5  6  0 0.00000000D+00 0.00000000D+00 0.00000000D+00 0.00000000D+00 0.00000000D+00
  <mgrwgt>
 0.1264662683D+02    5    2    0
 0.602749920368534D+02 0.000000000000000D+00 0.000000000000000D+00 0.602749920368534D+02
 0.602749920368534D+02 0.000000000000000D+00 0.000000000000000D+00 -.602749920368534D+02
 0.495181852126479D+02 0.153525512592208D+02 0.202571454654433D+01 -.470345226101319D+02
 0.464697796572398D+02 -.219462415515846D+02 0.190420211286328D+02 0.362657460213990D+02
 0.245620192038192D+02 0.659369029236375D+01 -.210677356751771D+02 0.107687765887329D+02
 0.000000000000000D+00 -.000000000000000D+00 -.000000000000000D+00 -.000000000000000D+00
 0.117414567379119D+03 0.000000000000000D+00 0.000000000000000D+00 0.117414567379119D+03
 0.120485334822282D+03 0.000000000000000D+00 0.000000000000000D+00 -.120485334822282D+03
 0.708504280191172D+02 0.450147419123463D+02 0.279501313752537D+02 -.470345226101319D+02
 0.546915163395684D+02 0.298272928233971D+01 0.408296577387189D+02 0.362657460213990D+02
 0.239310731936904D+02 0.185437436612180D+02 -.106235251216705D+02 0.107687765887329D+02
 0.884268846490246D+02 -.665412148559040D+02 -.581562639923021D+02 -.307076744316262D+01
0.514943360762D-03 0.000000000000D+00 0.000000000000D+00 0.417525957503D-03 0.000000000000D+00  6 21 4 -13 13 4 21 2 0.92410899D-03 0.93051722D-01 0.11094504D+04 0.48732624D+03 0.34490632D+04 0.13749699D+01  1  2  2  2  6  2        4 0.103325555185D+02
-.331730807065D-04 0.250003631018D-04 0.113442233393D-05 0.417525957503D-03 0.000000000000D+00  6 21 4 -13 13 4 21 4 0.92410899D-03 0.93051722D-01 0.11094504D+04 0.48732624D+03 0.34490632D+04 0.13749699D+01  1  2  3  2  6  2        4 -.198981114131D+01
0.366009816210D-04 0.000000000000D+00 0.000000000000D+00 0.417525957503D-03 0.000000000000D+00  6 21 4 -13 13 4 21 4 0.92410899D-03 0.93051722D-01 0.11094504D+04 0.48732624D+03 0.34490632D+04 0.13749699D+01  1  2 15  2  6  2        4 0.138844087065D+01
0.929889736300D-03 0.000000000000D+00 -.564954771216D-03 0.417525957503D-03 0.000000000000D+00  6 21 4 -13 13 4 21 4 0.92410899D-03 0.29094939D+00 0.11094504D+04 0.48732624D+03 0.34490632D+04 0.13749699D+01  1  2  5  2  6  2        4 0.527979884520D+00
0.147438258005D-03 0.000000000000D+00 -.738529707024D-04 0.417525916756D-03 0.000000000000D+00  6 21 21 -13 13 4 -4 4 0.92410899D-03 0.29094939D+00 0.11094504D+04 0.48732673D+03 0.34490638D+04 0.13749698D+01  1  2  5 10  6  2        4 0.238746170054D+01
  </mgrwgt>
  </event>
  <event npLO=' -1 ' npNLO=' 1 '>
  5     66 0.13416416E+02 0.43464968E+02 0.75467711E-02 0.13329520E+00
       21 -1    0    0  501  502 0.00000000E+00 0.00000000E+00 0.15628541E+04 0.15628541E+04 0.00000000E+00 0.0000E+00 0.9000E+01
        2 -1    0    0  502    0 0.00000000E+00 0.00000000E+00 -.11807160E+02 0.11807160E+02 0.00000000E+00 0.0000E+00 0.9000E+01
      -13  1    1    2    0    0 -.14400234E+02 -.94324431E+01 0.37349815E+03 0.37389464E+03 0.00000000E+00 0.0000E+00 0.9000E+01
       13  1    1    2    0    0 0.52452544E+02 -.11572915E+02 0.53276309E+02 0.75654259E+02 0.00000000E+00 0.0000E+00 0.9000E+01
        2  1    1    2  501    0 -.38052311E+02 0.21005359E+02 0.11242725E+04 0.11251123E+04 0.00000000E+00 0.0000E+00 0.9000E+01
#aMCatNLO 1  0  0  1  5 0.62123409D+01 0.00000000D+00  -5  6  0 0.00000000D+00 0.00000000D+00 0.00000000D+00 0.00000000D+00 0.00000000D+00
  <mgrwgt>
 0.3876863446D+03   49    2    0
 0.135841337144993D+03 0.000000000000000D+00 0.000000000000000D+00 0.135841337144993D+03
 0.135841337144993D+03 0.000000000000000D+00 0.000000000000000D+00 -.135841337144993D+03
 0.347620651419977D+02 -.144002336406070D+02 -.943244312147714D+01 0.302003884212194D+02
 0.134332358326229D+03 0.524525444578760D+02 -.115729154593984D+02 -.123125873402590D+03
 0.102588250821759D+03 -.380523108172690D+02 0.210053585808755D+02 0.929254849813707D+02
 0.000000000000000D+00 -.000000000000000D+00 -.000000000000000D+00 0.000000000000000D+00
 0.148946712344556D+03 0.000000000000000D+00 0.000000000000000D+00 0.148946712344556D+03
 0.136572400911756D+03 0.000000000000000D+00 0.000000000000000D+00 -.136572400911756D+03
 0.345179148519267D+02 -.142916001801392D+02 -.867024504978876D+01 0.302003884212194D+02
 0.134275381620418D+03 0.528737309002130D+02 -.861777168704361D+01 -.123125873402590D+03
 0.102956489716730D+03 -.377300093898205D+02 0.232667016831378D+02 0.929254849813707D+02
 0.137693270672380D+02 -.852121330253242D+00 -.597868494630539D+01 0.123743114327998D+02
0.292647318681D-01 0.000000000000D+00 0.000000000000D+00 0.189269290943D-04 0.000000000000D+00  6 21 2 -13 13 2 21 2 0.24043909D+00 0.18164862D-02 0.32714685D+04 0.18892034D+04 0.85319369D+04 0.12924560D+01  1  2  2  1  6  1       21 0.229033908532D+02
-.211139049590D-03 0.142079494276D-02 0.644703242284D-04 0.189269290943D-04 0.000000000000D+00  6 21 2 -13 13 2 21 4 0.24043909D+00 0.18164862D-02 0.32714685D+04 0.18892034D+04 0.85319369D+04 0.12924560D+01  1  2  3  1  6  1       21 -.121513422520D+01
0.262910749962D-02 0.000000000000D+00 0.000000000000D+00 0.189269290943D-04 0.000000000000D+00  6 21 2 -13 13 2 21 4 0.24043909D+00 0.18164862D-02 0.32714685D+04 0.18892034D+04 0.85319369D+04 0.12924560D+01  1  2 15  1  6  1       21 0.343712311294D+01
0.219486476543D+00 0.000000000000D+00 0.000000000000D+00 0.189789871124D-04 0.000000000000D+00  6 21 2 -13 13 2 21 4 0.26505442D+00 0.18164862D-02 0.36393223D+04 0.18296542D+04 0.84488764D+04 0.12942322D+01  1  2 12  1  6  1       21 0.200838326472D+03
0.219486476543D+00 0.000000000000D+00 0.000000000000D+00 0.189789871124D-04 0.000000000000D+00  6 21 2 -13 13 2 21 4 0.26505442D+00 0.18164862D-02 0.36393223D+04 0.18296542D+04 0.84488764D+04 0.12942322D+01  1  2 12  1  6  1       21 0.200838326472D+03
-.246908631109D+00 0.000000000000D+00 0.000000000000D+00 0.189269290943D-04 0.000000000000D+00  6 21 2 -13 13 2 21 4 0.24043909D+00 0.18164862D-02 0.32714685D+04 0.18892034D+04 0.85319369D+04 0.12924560D+01  1  2  4  1  6  1       21 -.322792188183D+03
-.661908758292D+00 0.000000000000D+00 -.578801559270D-01 0.189269290943D-04 0.000000000000D+00  6 21 2 -13 13 2 21 4 0.26416408D+00 0.18164862D-02 0.32714685D+04 0.18892034D+04 0.85319369D+04 0.12924560D+01  1  2  5  1  6  1       21 -.661061708304D+03
0.653345206153D+00 0.000000000000D+00 0.568677620753D-01 0.189269290943D-04 0.000000000000D+00  6 21 2 -13 13 2 21 4 0.24043909D+00 0.18164862D-02 0.32714685D+04 0.18892034D+04 0.85319369D+04 0.12924560D+01  1  2  6  1  6  1       21 0.925406395295D+03
0.394242708681D-01 0.000000000000D+00 0.000000000000D+00 0.189269290943D-04 0.688100704465D-05  6 21 2 -13 13 2 21 4 0.26363560D+00 0.18262621D-02 0.36393223D+04 0.18296542D+04 0.84488764D+04 0.12942322D+01  1  2 11  1  6  1       21 0.365564526164D+02
0.548010988253D-02 0.000000000000D+00 0.000000000000D+00 0.189789871124D-04 0.000000000000D+00  6 -1 2 -13 13 2 -1 4 0.26505442D+00 0.18164862D-02 0.36393223D+04 0.18296542D+04 0.84488764D+04 0.12942322D+01  1  2 12  4  6  1       21 0.531112538354D+00
0.548010988253D-02 0.000000000000D+00 0.000000000000D+00 0.189789871124D-04 0.000000000000D+00  6 -3 2 -13 13 2 -3 4 0.26505442D+00 0.18164862D-02 0.36393223D+04 0.18296542D+04 0.84488764D+04 0.12942322D+01  1  2 12  4  6  1       21 0.325754612028D+00
0.548010988253D-02 0.000000000000D+00 0.000000000000D+00 0.189789871124D-04 0.000000000000D+00  6 -5 2 -13 13 2 -5 4 0.26505442D+00 0.18164862D-02 0.36393223D+04 0.18296542D+04 0.84488764D+04 0.12942322D+01  1  2 12  4  6  1       21 0.740625000120D-01
0.548010988253D-02 0.000000000000D+00 0.000000000000D+00 0.189789871124D-04 0.000000000000D+00  6 -1 2 -13 13 2 -1 4 0.26505442D+00 0.18164862D-02 0.36393223D+04 0.18296542D+04 0.84488764D+04 0.12942322D+01  1  2 12  4  6  1       21 0.531112538354D+00
0.548010988253D-02 0.000000000000D+00 0.000000000000D+00 0.189789871124D-04 0.000000000000D+00  6 -3 2 -13 13 2 -3 4 0.26505442D+00 0.18164862D-02 0.36393223D+04 0.18296542D+04 0.84488764D+04 0.12942322D+01  1  2 12  4  6  1       21 0.325754612028D+00
0.548010988253D-02 0.000000000000D+00 0.000000000000D+00 0.189789871124D-04 0.000000000000D+00  6 -5 2 -13 13 2 -5 4 0.26505442D+00 0.18164862D-02 0.36393223D+04 0.18296542D+04 0.84488764D+04 0.12942322D+01  1  2 12  4  6  1       21 0.740625000120D-01
-.156591986891D-01 0.000000000000D+00 -.138105921617D-02 0.189269290943D-04 0.000000000000D+00  6 -1 2 -13 13 2 -1 4 0.26416408D+00 0.18164862D-02 0.32714685D+04 0.18892034D+04 0.85319369D+04 0.12924560D+01  1  2  5  4  6  1       21 -.166702568983D+01
-.156591986891D-01 0.000000000000D+00 -.138105921617D-02 0.189269290943D-04 0.000000000000D+00  6 -3 2 -13 13 2 -3 4 0.26416408D+00 0.18164862D-02 0.32714685D+04 0.18892034D+04 0.85319369D+04 0.12924560D+01  1  2  5  4  6  1       21 -.101714447261D+01
-.156591986891D-01 0.000000000000D+00 -.138105921617D-02 0.189269290943D-04 0.000000000000D+00  6 -5 2 -13 13 2 -5 4 0.26416408D+00 0.18164862D-02 0.32714685D+04 0.18892034D+04 0.85319369D+04 0.12924560D+01  1  2  5  4  6  1       21 -.231774808237D+00
0.217461210476D-02 0.000000000000D+00 0.000000000000D+00 0.189269290943D-04 0.256831501816D-06  6 -1 2 -13 13 2 -1 4 0.26363560D+00 0.18262621D-02 0.36393223D+04 0.18296542D+04 0.84488764D+04 0.12942322D+01  1  2 11  4  6  1       21 0.215431628309D+00
0.217461210476D-02 0.000000000000D+00 0.000000000000D+00 0.189269290943D-04 0.256831501816D-06  6 -3 2 -13 13 2 -3 4 0.26363560D+00 0.18262621D-02 0.36393223D+04 0.18296542D+04 0.84488764D+04 0.12942322D+01  1  2 11  4  6  1       21 0.131010609096D+00
0.217461210476D-02 0.000000000000D+00 0.000000000000D+00 0.189269290943D-04 0.256831501816D-06  6 -5 2 -13 13 2 -5 4 0.26363560D+00 0.18262621D-02 0.36393223D+04 0.18296542D+04 0.84488764D+04 0.12942322D+01  1  2 11  4  6  1       21 0.298559359634D-01
0.548010988253D-02 0.000000000000D+00 0.000000000000D+00 0.189789871124D-04 0.000000000000D+00  6 1 2 -13 13 2 1 4 0.26505442D+00 0.18164862D-02 0.36393223D+04 0.18296542D+04 0.84488764D+04 0.12942322D+01  1  2 12  5  6  1       21 0.687254334710D+01
0.548010988253D-02 0.000000000000D+00 0.000000000000D+00 0.189789871124D-04 0.000000000000D+00  6 3 2 -13 13 2 3 4 0.26505442D+00 0.18164862D-02 0.36393223D+04 0.18296542D+04 0.84488764D+04 0.12942322D+01  1  2 12  5  6  1       21 0.441304192981D+00
0.548010988253D-02 0.000000000000D+00 0.000000000000D+00 0.189789871124D-04 0.000000000000D+00  6 5 2 -13 13 2 5 4 0.26505442D+00 0.18164862D-02 0.36393223D+04 0.18296542D+04 0.84488764D+04 0.12942322D+01  1  2 12  5  6  1       21 0.734163736331D-01
0.548010988253D-02 0.000000000000D+00 0.000000000000D+00 0.189789871124D-04 0.000000000000D+00  6 1 2 -13 13 2 1 4 0.26505442D+00 0.18164862D-02 0.36393223D+04 0.18296542D+04 0.84488764D+04 0.12942322D+01  1  2 12  5  6  1       21 0.687254334710D+01
0.548010988253D-02 0.000000000000D+00 0.000000000000D+00 0.189789871124D-04 0.000000000000D+00  6 3 2 -13 13 2 3 4 0.26505442D+00 0.18164862D-02 0.36393223D+04 0.18296542D+04 0.84488764D+04 0.12942322D+01  1  2 12  5  6  1       21 0.441304192981D+00
0.548010988253D-02 0.000000000000D+00 0.000000000000D+00 0.189789871124D-04 0.000000000000D+00  6 5 2 -13 13 2 5 4 0.26505442D+00 0.18164862D-02 0.36393223D+04 0.18296542D+04 0.84488764D+04 0.12942322D+01  1  2 12  5  6  1       21 0.734163736331D-01
-.156591986891D-01 0.000000000000D+00 -.138105921617D-02 0.189269290943D-04 0.000000000000D+00  6 1 2 -13 13 2 1 4 0.26416408D+00 0.18164862D-02 0.32714685D+04 0.18892034D+04 0.85319369D+04 0.12924560D+01  1  2  5  5  6  1       21 -.213663859115D+02
-.156591986891D-01 0.000000000000D+00 -.138105921617D-02 0.189269290943D-04 0.000000000000D+00  6 3 2 -13 13 2 3 4 0.26416408D+00 0.18164862D-02 0.32714685D+04 0.18892034D+04 0.85319369D+04 0.12924560D+01  1  2  5  5  6  1       21 -.137811558941D+01
-.156591986891D-01 0.000000000000D+00 -.138105921617D-02 0.189269290943D-04 0.000000000000D+00  6 5 2 -13 13 2 5 4 0.26416408D+00 0.18164862D-02 0.32714685D+04 0.18892034D+04 0.85319369D+04 0.12924560D+01  1  2  5  5  6  1       21 -.229754178430D+00
0.217007146651D-02 0.000000000000D+00 0.000000000000D+00 0.189269290943D-04 0.256295231951D-06  6 1 2 -13 13 2 1 4 0.26363560D+00 0.18262621D-02 0.36393223D+04 0.18296542D+04 0.84488764D+04 0.12942322D+01  1  2 11  5  6  1       21 0.273929930825D+01
0.217007146651D-02 0.000000000000D+00 0.000000000000D+00 0.189269290943D-04 0.256295231951D-06  6 3 2 -13 13 2 3 4 0.26363560D+00 0.18262621D-02 0.36393223D+04 0.18296542D+04 0.84488764D+04 0.12942322D+01  1  2 11  5  6  1       21 0.177121852226D+00
0.217007146651D-02 0.000000000000D+00 0.000000000000D+00 0.189269290943D-04 0.256295231951D-06  6 5 2 -13 13 2 5 4 0.26363560D+00 0.18262621D-02 0.36393223D+04 0.18296542D+04 0.84488764D+04 0.12942322D+01  1  2 11  5  6  1       21 0.295338224221D-01
0.548010988253D-02 0.000000000000D+00 0.000000000000D+00 0.189789871124D-04 0.000000000000D+00  6 -2 2 -13 13 2 -2 4 0.26505442D+00 0.18164862D-02 0.36393223D+04 0.18296542D+04 0.84488764D+04 0.12942322D+01  1  2 12  6  6  1       21 0.477617500222D+00
0.548010988253D-02 0.000000000000D+00 0.000000000000D+00 0.189789871124D-04 0.000000000000D+00  6 -2 2 -13 13 2 -2 4 0.26505442D+00 0.18164862D-02 0.36393223D+04 0.18296542D+04 0.84488764D+04 0.12942322D+01  1  2 12  6  6  1       21 0.477617500222D+00
-.156591986891D-01 0.000000000000D+00 -.138105921617D-02 0.189269290943D-04 0.000000000000D+00  6 -2 2 -13 13 2 -2 4 0.26416408D+00 0.18164862D-02 0.32714685D+04 0.18892034D+04 0.85319369D+04 0.12924560D+01  1  2  5  6  6  1       21 -.149405752996D+01
0.296652960245D-02 0.000000000000D+00 0.000000000000D+00 0.189269290943D-04 0.494936559544D-06  6 -2 2 -13 13 2 -2 4 0.26363560D+00 0.18262621D-02 0.36393223D+04 0.18296542D+04 0.84488764D+04 0.12942322D+01  1  2 11  6  6  1       21 0.262858312158D+00
0.548010988253D-02 0.000000000000D+00 0.000000000000D+00 0.189789871124D-04 0.000000000000D+00  6 2 2 -13 13 2 2 4 0.26505442D+00 0.18164862D-02 0.36393223D+04 0.18296542D+04 0.84488764D+04 0.12942322D+01  1  2 12  7  6  1       21 0.164558919060D+02
0.548010988253D-02 0.000000000000D+00 0.000000000000D+00 0.189789871124D-04 0.000000000000D+00  6 2 2 -13 13 2 2 4 0.26505442D+00 0.18164862D-02 0.36393223D+04 0.18296542D+04 0.84488764D+04 0.12942322D+01  1  2 12  7  6  1       21 0.164558919060D+02
-.156591986891D-01 0.000000000000D+00 -.138105921617D-02 0.189269290943D-04 0.000000000000D+00  6 2 2 -13 13 2 2 4 0.26416408D+00 0.18164862D-02 0.32714685D+04 0.18892034D+04 0.85319369D+04 0.12924560D+01  1  2  5  7  6  1       21 -.510766004812D+02
0.247998428061D-02 0.000000000000D+00 0.000000000000D+00 0.189269290943D-04 0.156093156582D-06  6 2 2 -13 13 2 2 4 0.26363560D+00 0.18262621D-02 0.36393223D+04 0.18296542D+04 0.84488764D+04 0.12942322D+01  1  2 11  7  6  1       21 0.747517115993D+01
0.548010988253D-02 0.000000000000D+00 0.000000000000D+00 0.189789871124D-04 0.000000000000D+00  6 -4 2 -13 13 2 -4 4 0.26505442D+00 0.18164862D-02 0.36393223D+04 0.18296542D+04 0.84488764D+04 0.12942322D+01  1  2 12  8  6  1       21 0.231933444322D+00
0.548010988253D-02 0.000000000000D+00 0.000000000000D+00 0.189789871124D-04 0.000000000000D+00  6 -4 2 -13 13 2 -4 4 0.26505442D+00 0.18164862D-02 0.36393223D+04 0.18296542D+04 0.84488764D+04 0.12942322D+01  1  2 12  8  6  1       21 0.231933444322D+00
-.156591986891D-01 0.000000000000D+00 -.138105921617D-02 0.189269290943D-04 0.000000000000D+00  6 -4 2 -13 13 2 -4 4 0.26416408D+00 0.18164862D-02 0.32714685D+04 0.18892034D+04 0.85319369D+04 0.12924560D+01  1  2  5  8  6  1       21 -.721425370464D+00
0.218257054175D-02 0.000000000000D+00 0.000000000000D+00 0.189269290943D-04 0.257771429135D-06  6 -4 2 -13 13 2 -4 4 0.26363560D+00 0.18262621D-02 0.36393223D+04 0.18296542D+04 0.84488764D+04 0.12942322D+01  1  2 11  8  6  1       21 0.930005542708D-01
0.548010988253D-02 0.000000000000D+00 0.000000000000D+00 0.189789871124D-04 0.000000000000D+00  6 4 2 -13 13 2 4 4 0.26505442D+00 0.18164862D-02 0.36393223D+04 0.18296542D+04 0.84488764D+04 0.12942322D+01  1  2 12  9  6  1       21 0.230083993775D+00
0.548010988253D-02 0.000000000000D+00 0.000000000000D+00 0.189789871124D-04 0.000000000000D+00  6 4 2 -13 13 2 4 4 0.26505442D+00 0.18164862D-02 0.36393223D+04 0.18296542D+04 0.84488764D+04 0.12942322D+01  1  2 12  9  6  1       21 0.230083993775D+00
-.156591986891D-01 0.000000000000D+00 -.138105921617D-02 0.189269290943D-04 0.000000000000D+00  6 4 2 -13 13 2 4 4 0.26416408D+00 0.18164862D-02 0.32714685D+04 0.18892034D+04 0.85319369D+04 0.12924560D+01  1  2  5  9  6  1       21 -.715641660989D+00
0.218990444768D-02 0.000000000000D+00 0.000000000000D+00 0.189269290943D-04 0.258637596517D-06  6 4 2 -13 13 2 4 4 0.26363560D+00 0.18262621D-02 0.36393223D+04 0.18296542D+04 0.84488764D+04 0.12942322D+01  1  2 11  9  6  1       21 0.925621928024D-01
  </mgrwgt>
  </event>
  <event npLO=' -1 ' npNLO=' 1 '>
  6     66 0.13416416E+02 0.21038633E+02 0.75467711E-02 0.11569759E+00
       21 -1    0    0  501  502 0.00000000E+00 0.00000000E+00 0.56207802E+02 0.56207802E+02 0.00000000E+00 0.0000E+00 0.9000E+01
        4 -1    0    0  502    0 0.00000000E+00 0.00000000E+00 -.82935866E+02 0.82935866E+02 0.00000000E+00 0.0000E+00 0.9000E+01
       23  2    1    2    0    0 -.19684161E+02 0.74268360E+01 0.14739380E+02 0.92644495E+02 0.89011961E+02 0.0000E+00 0.0000E+00
      -13  1    3    3    0    0 -.49889262E+02 0.25050834E+02 0.14479878E+02 0.57672781E+02 0.00000000E+00 0.0000E+00 0.9000E+01
       13  1    3    3    0    0 0.30205102E+02 -.17623998E+02 0.25950201E+00 0.34971714E+02 0.00000000E+00 0.0000E+00 0.9000E+01
        4  1    1    2  501    0 0.19684161E+02 -.74268360E+01 -.41467444E+02 0.46499172E+02 0.00000000E+00 0.0000E+00 0.9000E+01
#aMCatNLO 1  0  0  1  2 0.70132260D+00 0.00000000D+00  -5  6  0 0.00000000D+00 0.00000000D+00 0.00000000D+00 0.00000000D+00 0.00000000D+00
  <mgrwgt>
 0.7969432918D+02    3    2    0
 0.682762236235374D+02 0.000000000000000D+00 0.000000000000000D+00 0.682762236235374D+02
 0.682762236235374D+02 0.000000000000000D+00 0.000000000000000D+00 -.682762236235374D+02
 0.616013960093275D+02 -.498892624685661D+02 0.250508338410786D+02 0.260432180136630D+02
 0.356861316432004D+02 0.302051017851471D+02 -.176239978374524D+02 0.710960744557680D+01
 0.392649195945469D+02 0.196841606834190D+02 -.742683600362618D+01 -.331528254592398D+02
 0.000000000000000D+00 -.000000000000000D+00 0.000000000000000D+00 -.000000000000000D+00
 0.167136155584801D+03 0.000000000000000D+00 0.000000000000000D+00 0.167136155584801D+03
 0.199833170927988D+03 0.000000000000000D+00 0.000000000000000D+00 -.199833170927988D+03
 0.297414063395352D+02 -.127491778625846D+02 0.661517273956974D+01 0.260432180136630D+02
 0.941084911537587D+02 0.829797391744118D+02 -.438203659929200D+02 0.710960744557680D+01
 0.835842824759096D+02 0.696347823125667D+02 -.322214142048928D+02 -.331528254592398D+02
 0.159535146543586D+03 -.139865343624394D+03 0.694266074582431D+02 -.326970153431862D+02
0.299743045321D-02 0.000000000000D+00 0.000000000000D+00 0.972059691234D-04 0.000000000000D+00  6 21 4 -13 13 4 21 2 0.86473541D-02 0.12759364D-01 0.31267585D+04 0.44262452D+03 0.31642388D+04 0.13814746D+01  1  2  2  1  6  1       21 0.117941299462D+03
-.381668484818D-03 0.145524450673D-03 0.660335157149D-05 0.972059691234D-04 0.000000000000D+00  6 21 4 -13 13 4 21 4 0.86473541D-02 0.12759364D-01 0.31267585D+04 0.44262452D+03 0.31642388D+04 0.13814746D+01  1  2  3  1  6  1       21 -.500193942441D+02
0.156770131442D-03 0.000000000000D+00 0.000000000000D+00 0.972059691234D-04 0.000000000000D+00  6 21 4 -13 13 4 21 4 0.86473541D-02 0.12759364D-01 0.31267585D+04 0.44262452D+03 0.31642388D+04 0.13814746D+01  1  2 15  1  6  1       21 0.117724239652D+02
  </mgrwgt>
  </event>
  <event npLO=' -1 ' npNLO=' 1 '>
  6     66 0.13416416E+02 0.16475419E+02 0.75467711E-02 0.15966849E+00
       21 -1    0    0  501  502 0.00000000E+00 0.00000000E+00 0.12043668E+03 0.12043668E+03 0.00000000E+00 0.0000E+00 0.9000E+01
        2 -1    0    0  502    0 -.00000000E+00 -.00000000E+00 -.61726581E+03 0.61726581E+03 0.00000000E+00 0.0000E+00 0.9000E+01
       23  2    1    2    0    0 -.12150246E+02 -.11127037E+02 -.61357897E+03 0.61979589E+03 0.86002075E+02 0.0000E+00 0.0000E+00
      -13  1    3    3    0    0 -.25463992E+02 -.42656136E+02 -.27137094E+03 0.27588068E+03 0.00000000E+00 0.0000E+00 0.9000E+01
       13  1    3    3    0    0 0.13313746E+02 0.31529099E+02 -.34220803E+03 0.34391521E+03 0.00000000E+00 0.0000E+00 0.9000E+01
        2  1    1    2  501    0 0.12150246E+02 0.11127037E+02 0.11674984E+03 0.11790660E+03 0.00000000E+00 0.0000E+00 0.9000E+01
#aMCatNLO 1  0  0  5  1 0.12788826D+01 0.00000000D+00  -5  6  0 0.00000000D+00 0.00000000D+00 0.00000000D+00 0.00000000D+00 0.00000000D+00
  <mgrwgt>
 0.9232796389D+04    6    2    0
 0.272656275925632D+03 0.000000000000000D+00 0.000000000000000D+00 0.272656275925632D+03
 0.272656275925632D+03 -.000000000000000D+00 -.000000000000000D+00 -.272656275925632D+03
 0.125969730192678D+03 -.254639923795564D+02 -.426561360570917D+02 -.115760148901031D+03
 0.153468304962044D+03 0.133137461884941D+02 0.315290986303818D+02 -.149603411491540D+03
 0.265874516696543D+03 0.121502461910628D+02 0.111270374267102D+02 0.265363560392570D+03
 0.000000000000000D+00 0.000000000000000D+00 0.000000000000000D+00 0.000000000000000D+00
 0.272656275925632D+03 0.000000000000000D+00 0.000000000000000D+00 0.272656275925632D+03
 0.272656275925632D+03 -.000000000000000D+00 -.000000000000000D+00 -.272656275925632D+03
 0.125927440136640D+03 -.254619376566848D+02 -.426542543686111D+02 -.115715273384251D+03
 0.153415699250272D+03 0.133162494384574D+02 0.315313910741391D+02 -.149548740062470D+03
 0.427171713388630D+01 0.113826592472160D+01 0.100018432441288D+01 0.399393906735505D+01
 0.261697695330467D+03 0.110074222935063D+02 0.101226789700595D+02 0.261270074379366D+03
0.404384300129D-01 0.000000000000D+00 0.000000000000D+00 0.773202228670D-02 0.000000000000D+00  6 21 2 -13 13 2 21 2 0.18528720D-01 0.94963971D-01 0.25189778D+04 0.27143944D+03 0.27061518D+04 0.14160828D+01  1  2  2  3  6  5        2 0.145741750956D+03
0.149806208725D-01 0.196327501358D-02 0.890860270299D-04 0.773202228670D-02 0.000000000000D+00  6 21 2 -13 13 2 21 4 0.18528720D-01 0.94963971D-01 0.25189778D+04 0.27143944D+03 0.27061518D+04 0.14160828D+01  1  2  3  3  6  5        2 0.767023509932D+02
0.416138918730D-02 0.000000000000D+00 0.000000000000D+00 0.773202228670D-02 0.000000000000D+00  6 21 2 -13 13 2 21 4 0.18528720D-01 0.94963971D-01 0.25189778D+04 0.27143944D+03 0.27061518D+04 0.14160828D+01  1  2 15  3  6  5        2 0.300749792178D+02
0.989859821933D-05 0.000000000000D+00 0.000000000000D+00 0.773650616339D-02 0.000000000000D+00  6 21 2 -13 13 2 21 4 0.18528720D-01 0.94963971D-01 0.25187062D+04 0.26992924D+03 0.27033164D+04 0.14164934D+01  1  2 12  3  6  5        2 0.716218167267D-01
-.152138984877D+00 0.000000000000D+00 0.000000000000D+00 0.773202228670D-02 0.000000000000D+00  6 21 2 -13 13 2 21 4 0.18528720D-01 0.94963971D-01 0.25189778D+04 0.27143944D+03 0.27061518D+04 0.14160828D+01  1  2  5  3  6  5        2 -.109953109465D+04
0.139308480442D+01 0.000000000000D+00 0.000000000000D+00 0.773202228670D-02 0.677596556560D-02  6 21 2 -13 13 2 21 4 0.18528720D-01 0.94963971D-01 0.25187062D+04 0.26992924D+03 0.27033164D+04 0.14164934D+01  1  2 11  3  6  5        2 0.100797367805D+05
  </mgrwgt>
  </event>
  <event npLO=' -1 ' npNLO=' 1 '>
  7     66 0.13416416E+02 0.92137006E+01 0.75467711E-02 0.18727036E+00
       21 -1    0    0  503  502 0.00000000E+00 0.00000000E+00 0.16451715E+03 0.16451715E+03 0.00000000E+00 0.0000E+00 0.9000E+01
        2 -1    0    0  502    0 0.00000000E+00 0.00000000E+00 -.16322857E+04 0.16322857E+04 0.00000000E+00 0.0000E+00 0.9000E+01
       23  2    1    2    0    0 -.77188614E+01 -.61550767E+00 -.16277183E+04 0.16302249E+04 0.90036445E+02 0.0000E+00 0.0000E+00
      -11  1    3    3    0    0 0.89871412E+01 -.26788879E+02 -.18261707E+03 0.18479018E+03 0.00000000E+00 0.0000E+00 0.9000E+01
       11  1    3    3    0    0 -.16706003E+02 0.26173371E+02 -.14451012E+04 0.14454347E+04 0.00000000E+00 0.0000E+00 0.9000E+01
        2  1    1    2  501    0 0.10628895E+02 0.14429419E+01 0.54188556E+01 0.12017466E+02 0.00000000E+00 0.0000E+00 0.9000E+01
       21  1    1    2  503  501 -.29100335E+01 -.82743426E+00 0.15453085E+03 0.15456047E+03 0.00000000E+00 0.0000E+00 0.9000E+01
#aMCatNLO 2  0  0  1  5 0.90713970D+01 0.00000000D+00  -5  6  0 0.00000000D+00 0.00000000D+00 0.00000000D+00 0.00000000D+00 0.00000000D+00
  <mgrwgt>
 0.1050813532D+06    1    2    0
 0.127569106343666D+03 0.000000000000000D+00 0.000000000000000D+00 0.127569106343666D+03
 0.127569106343666D+03 0.000000000000000D+00 0.000000000000000D+00 -.127569106343666D+03
 0.282462481312148D+02 0.866490611102640D+01 -.268805029558480D+02 -.456614079831382D+00
 0.115209465919603D+03 -.180193538879360D+02 0.257999352637090D+02 -.110828188035942D+03
 0.111682498636514D+03 0.935444777690965D+01 0.108056769213901D+01 0.111284802115773D+03
 0.000000000000000D+00 -.000000000000000D+00 -.000000000000000D+00 0.000000000000000D+00
 0.210488006864085D+04 0.000000000000000D+00 0.000000000000000D+00 0.210488006864085D+04
 0.127579231891574D+03 0.000000000000000D+00 0.000000000000000D+00 -.127579231891574D+03
 0.282598876371879D+02 0.898714119462901D+01 -.267888791478178D+02 -.456614079831382D+00
 0.115095713036485D+03 -.167060025573974D+02 0.261733714794063D+02 -.110828188035942D+03
 0.111800548606612D+03 0.106288948335499D+02 0.144294192885083D+01 0.111284802115773D+03
 0.197730315125214D+04 -.291003347078151D+01 -.827434260439387D+00 0.197730083674928D+04
0.669799134367D+02 0.000000000000D+00 0.000000000000D+00 0.501717028440D-01 0.484932618293D+02  6 21 2 -11 11 2 21 4 0.25310330D-01 0.25112088D+00 0.13343865D+04 0.65878870D+02 0.24264555D+04 0.15340498D+01  1  2  1  1  6  1       21 0.105081353170D+06
  </mgrwgt>
  </event>
  <event npLO=' -1 ' npNLO=' 1 '>
  6     66 -.13416416E+02 0.22675098E+02 0.75467711E-02 0.14898581E+00
       21 -1    0    0  501  502 0.00000000E+00 0.00000000E+00 0.36236604E+02 0.36236604E+02 0.00000000E+00 0.0000E+00 0.9000E+01
        2 -1    0    0  502    0 -.00000000E+00 -.00000000E+00 -.12772289E+03 0.12772289E+03 0.00000000E+00 0.0000E+00 0.9000E+01
       23  2    1    2    0    0 -.21679548E+02 0.66450920E+01 -.10083877E+03 0.13943137E+03 0.93586798E+02 0.0000E+00 0.0000E+00
      -11  1    3    3    0    0 -.40976162E+02 -.21053786E+02 -.17092332E+02 0.49137110E+02 0.00000000E+00 0.0000E+00 0.9000E+01
       11  1    3    3    0    0 0.19296614E+02 0.27698878E+02 -.83746441E+02 0.90294260E+02 0.00000000E+00 0.0000E+00 0.9000E+01
        2  1    1    2  501    0 0.21679548E+02 -.66450920E+01 0.93524843E+01 0.24528127E+02 0.00000000E+00 0.0000E+00 0.9000E+01
#aMCatNLO 1  0  0  5  1 0.26658947D+01 0.00000000D+00  -5  6  0 0.00000000D+00 0.00000000D+00 0.00000000D+00 0.00000000D+00 0.00000000D+00
  <mgrwgt>
 -.1057626957D+04    8    2    0
 0.680311984332890D+02 0.000000000000000D+00 0.000000000000000D+00 0.680311984332890D+02
 0.680311984332890D+02 -.000000000000000D+00 -.000000000000000D+00 -.680311984332890D+02
 0.477191492445443D+02 -.409761621117755D+02 -.210537857067599D+02 0.124422445975963D+02
 0.524976091005113D+02 0.192966137970214D+02 0.276988776882744D+02 -.402046245107289D+02
 0.358456385215225D+02 0.216795483147541D+02 -.664509198151445D+01 0.277623799131327D+02
 0.000000000000000D+00 0.000000000000000D+00 0.000000000000000D+00 0.000000000000000D+00
 0.680311984332890D+02 0.000000000000000D+00 0.000000000000000D+00 0.680311984332890D+02
 0.680311984332890D+02 -.000000000000000D+00 -.000000000000000D+00 -.680311984332890D+02
 0.476790329658447D+02 -.408724365225585D+02 -.210855790850710D+02 0.125750734357597D+02
 0.524094889882432D+02 0.194106783453197D+02 0.276639152709644D+02 -.400585558160079D+02
 0.102429730739279D+02 0.808590577256340D+01 -.175128762326612D+01 0.603900793930870D+01
 0.257309018385623D+02 0.133758524046753D+02 -.482704856262728D+01 0.214444744409395D+02
0.283972175550D-03 0.000000000000D+00 0.000000000000D+00 0.438424048415D-03 0.000000000000D+00  6 21 2 -11 11 2 21 2 0.55748622D-02 0.19649676D-01 0.26266333D+04 0.51416006D+03 0.35384469D+04 0.13713886D+01  1  2  2  3  6  5        2 0.372672347925D+02
-.454611419778D-05 0.137867735377D-04 0.625591866418D-06 0.438424048415D-03 0.000000000000D+00  6 21 2 -11 11 2 21 4 0.55748622D-02 0.19649676D-01 0.26266333D+04 0.51416006D+03 0.35384469D+04 0.13713886D+01  1  2  3  3  6  5        2 -.662573009622D+01
0.236708704381D-04 0.000000000000D+00 0.000000000000D+00 0.438424048415D-03 0.000000000000D+00  6 21 2 -11 11 2 21 4 0.55748622D-02 0.19649676D-01 0.26266333D+04 0.51416006D+03 0.35384469D+04 0.13713886D+01  1  2 15  3  6  5        2 0.584233759976D+01
0.846325778717D-05 0.000000000000D+00 0.000000000000D+00 0.436443580495D-03 0.000000000000D+00  6 21 2 -11 11 2 21 4 0.55748622D-02 0.19649676D-01 0.26152431D+04 0.53877787D+03 0.35672428D+04 0.13682876D+01  1  2 12  3  6  5        2 0.207119710709D+01
-.776094528042D-02 0.000000000000D+00 0.000000000000D+00 0.438424048415D-03 0.000000000000D+00  6 21 2 -11 11 2 21 4 0.55748622D-02 0.19649676D-01 0.26266333D+04 0.51416006D+03 0.35384469D+04 0.13713886D+01  1  2  4  3  6  5        2 -.191552154958D+04
-.110563788917D-02 0.000000000000D+00 0.000000000000D+00 0.438424048415D-03 0.000000000000D+00  6 21 2 -11 11 2 21 4 0.55748622D-02 0.19649676D-01 0.26266333D+04 0.51416006D+03 0.35384469D+04 0.13713886D+01  1  2  5  3  6  5        2 -.272888562696D+03
0.204819324466D-02 0.000000000000D+00 -.000000000000D+00 0.438424048415D-03 0.000000000000D+00  6 21 2 -11 11 2 21 4 0.55748622D-02 0.19649676D-01 0.26266333D+04 0.51416006D+03 0.35384469D+04 0.13713886D+01  1  2  6  3  6  5        2 0.505525829146D+03
0.239736367058D-02 0.000000000000D+00 0.000000000000D+00 0.438424048415D-03 0.207699734202D-03  6 21 2 -11 11 2 21 4 0.55748622D-02 0.19649676D-01 0.26152431D+04 0.53877787D+03 0.35672428D+04 0.13682876D+01  1  2 11  3  6  5        2 0.586702286994D+03
  </mgrwgt>
  </event>
  <event npLO=' -1 ' npNLO=' 1 '>
  7     66 -.13416416E+02 0.60551914E+02 0.75467711E-02 0.12561048E+00
       21 -1    0    0  503  502 0.00000000E+00 0.00000000E+00 0.53118706E+01 0.53118706E+01 0.00000000E+00 0.0000E+00 0.9000E+01
        2 -1    0    0  502    0 0.00000000E+00 0.00000000E+00 -.22895182E+04 0.22895182E+04 0.00000000E+00 0.0000E+00 0.9000E+01
       23  2    1    2    0    0 0.54289118E+02 -.29944918E+02 -.20240480E+04 0.20270743E+04 0.91737660E+02 0.0000E+00 0.0000E+00
      -11  1    3    3    0    0 0.37288669E+02 0.30232587E+02 -.82116688E+03 0.82256884E+03 0.00000000E+00 0.0000E+00 0.9000E+01
       11  1    3    3    0    0 0.17000449E+02 -.60177505E+02 -.12028812E+04 0.12045055E+04 0.00000000E+00 0.0000E+00 0.9000E+01
        2  1    1    2  501    0 -.51927500E+02 0.27859323E+02 -.22983911E+03 0.23727331E+03 0.00000000E+00 0.0000E+00 0.9000E+01
       21  1    1    2  503  501 -.23616177E+01 0.20855946E+01 -.30319229E+02 0.30482496E+02 0.00000000E+00 0.0000E+00 0.9000E+01
#aMCatNLO 2  0  0  1  2 0.43016205D+01 0.00000000D+00  -5  6  0 0.00000000D+00 0.00000000D+00 0.00000000D+00 0.00000000D+00 0.00000000D+00
  <mgrwgt>
 -.1554491390D+02    4    2    0
 0.108688717138934D+03 0.000000000000000D+00 0.000000000000000D+00 0.108688717138934D+03
 0.108688717138934D+03 0.000000000000000D+00 0.000000000000000D+00 -.108688717138934D+03
 0.540042897793719D+02 0.367013956553406D+02 0.307512202673459D+02 -.249766555726280D+02
 0.740419984781282D+02 0.161919922557401D+02 -.594635398280295D+02 -.410380842211907D+02
 0.893311460203689D+02 -.528933879110807D+02 0.287123195606836D+02 0.660147397938187D+02
 0.000000000000000D+00 -.000000000000000D+00 0.000000000000000D+00 0.000000000000000D+00
 0.110396728926295D+03 0.000000000000000D+00 0.000000000000000D+00 0.110396728926295D+03
 0.110162907096561D+03 0.000000000000000D+00 0.000000000000000D+00 -.110162907096561D+03
 0.541136531411256D+02 0.372886687644199D+02 0.302325869627749D+02 -.249766555726280D+02
 0.747962013086560D+02 0.170004489279395D+02 -.601775050156450D+02 -.410380842211907D+02
 0.884904120549611D+02 -.519274999515863D+02 0.278593234732868D+02 0.660147397938187D+02
 0.315936951811298D+01 -.236161774077310D+01 0.208559457958333D+01 0.233821829733411D+00
-.108890750153D-03 0.000000000000D+00 0.000000000000D+00 0.811718791350D-03 0.000000000000D+00  6 21 2 -11 11 2 21 4 0.82829503D-03 0.34752002D+00 0.74491604D+04 0.40108105D+04 0.75737825D+04 0.12527708D+01  1  2 13  1  6  1       21 -.811091303762D+01
-.108890750153D-03 0.000000000000D+00 0.000000000000D+00 0.811718791350D-03 0.000000000000D+00  6 21 2 -11 11 2 21 4 0.82829503D-03 0.34752002D+00 0.74491604D+04 0.40108105D+04 0.75737825D+04 0.12527708D+01  1  2 13  1  6  1       21 -.811091303762D+01
-.156518292323D-03 0.000000000000D+00 0.000000000000D+00 0.818408183873D-03 0.000000000000D+00  6 21 2 -11 11 2 21 4 0.80456731D-03 0.34752002D+00 0.71990166D+04 0.36221078D+04 0.72166164D+04 0.12579223D+01  1  2  8  1  6  1       21 -.123482939599D+02
0.178031579595D-03 0.000000000000D+00 0.000000000000D+00 0.818408183873D-03 0.889324248578D-03  6 21 2 -11 11 2 21 4 0.81721086D-03 0.35223358D+00 0.74491604D+04 0.40108105D+04 0.75737825D+04 0.12527708D+01  1  2  1  1  6  1       21 0.130252061357D+02
  </mgrwgt>
  </event>
  <event npLO=' -1 ' npNLO=' 1 '>
  6     66 0.13416416E+02 0.17277734E+02 0.75467711E-02 0.15974789E+00
       21 -1    0    0  501  502 0.00000000E+00 0.00000000E+00 0.18755065E+01 0.18755065E+01 0.00000000E+00 0.0000E+00 0.9000E+01
        2 -1    0    0  502    0 0.00000000E+00 0.00000000E+00 -.17404219E+04 0.17404219E+04 0.00000000E+00 0.0000E+00 0.9000E+01
       23  2    1    2    0    0 0.11993804E+02 -.12436589E+02 -.16239728E+04 0.16264284E+04 0.87653530E+02 0.0000E+00 0.0000E+00
      -11  1    3    3    0    0 0.75269851E+01 -.44329833E+02 -.13177315E+04 0.13184984E+04 0.00000000E+00 0.0000E+00 0.9000E+01
       11  1    3    3    0    0 0.44668186E+01 0.31893244E+02 -.30624131E+03 0.30792998E+03 0.00000000E+00 0.0000E+00 0.9000E+01
        2  1    1    2  501    0 -.11993804E+02 0.12436589E+02 -.11457361E+03 0.11586903E+03 0.00000000E+00 0.0000E+00 0.9000E+01
#aMCatNLO 1  0  0  1  1 0.25859210D+02 0.00000000D+00  -5  6  0 0.00000000D+00 0.00000000D+00 0.00000000D+00 0.00000000D+00 0.00000000D+00
  <mgrwgt>
 0.3080668633D+03    4    2    0
 0.571329380701268D+02 0.000000000000000D+00 0.000000000000000D+00 0.571329380701268D+02
 0.571329380701268D+02 0.000000000000000D+00 0.000000000000000D+00 -.571329380701268D+02
 0.549511271648093D+02 0.752698511477883D+01 -.443298327001332D+02 -.315885549613011D+02
 0.358013897111624D+02 0.446681861111351D+01 0.318932436273326D+02 0.156399503731164D+02
 0.235133592642820D+02 -.119938037258923D+02 0.124365890728006D+02 0.159486045881846D+02
 0.000000000000000D+00 0.000000000000000D+00 0.000000000000000D+00 -.000000000000000D+00
 0.616315628653070D+02 0.000000000000000D+00 0.000000000000000D+00 0.616315628653070D+02
 0.691392323079159D+02 0.000000000000000D+00 0.000000000000000D+00 -.691392323079159D+02
 0.557809445448932D+02 0.108513074372407D+01 -.459619349140823D+02 -.315885549613011D+02
 0.345950514673103D+02 0.371495410612882D+00 0.308556563617143D+02 0.156399503731164D+02
 0.247159332675879D+02 -.147995498309937D+02 0.117257278570470D+02 0.159486045881846D+02
 0.156788658934314D+02 0.133429236766568D+02 0.338055069532100D+01 -.750766944260887D+01
0.850582048763D-03 0.000000000000D+00 0.000000000000D+00 0.199536472966D-03 0.000000000000D+00  6 21 2 -11 11 2 21 2 0.28853946D-03 0.26775721D+00 0.22300388D+04 0.29852008D+03 0.28418430D+04 0.14091406D+01  1  2  2  1  6  1       21 0.400863706119D+03
0.273475244530D-05 0.412955320668D-04 0.187383573900D-05 0.199536472966D-03 0.000000000000D+00  6 21 2 -11 11 2 21 4 0.28853946D-03 0.26775721D+00 0.22300388D+04 0.29852008D+03 0.28418430D+04 0.14091406D+01  1  2  3  1  6  1       21 -.747281300296D+02
0.860050279374D-04 0.000000000000D+00 0.000000000000D+00 0.199536472966D-03 0.000000000000D+00  6 21 2 -11 11 2 21 4 0.28853946D-03 0.26775721D+00 0.22300388D+04 0.29852008D+03 0.28418430D+04 0.14091406D+01  1  2 15  1  6  1       21 0.804846396166D+02
-.105313061840D-03 0.000000000000D+00 0.000000000000D+00 0.199536472966D-03 0.000000000000D+00  6 21 2 -11 11 2 21 4 0.28853946D-03 0.26775721D+00 0.22300388D+04 0.29852008D+03 0.28418430D+04 0.14091406D+01  1  2  4  1  6  1       21 -.985533524307D+02
  </mgrwgt>
  </event>
  <event npLO=' -1 ' npNLO=' 1 '>
  6     66 0.13416416E+02 0.12246864E+02 0.75467711E-02 0.15257413E+00
       21 -1    0    0  501  502 0.00000000E+00 0.00000000E+00 0.57105637E+01 0.57105637E+01 0.00000000E+00 0.0000E+00 0.9000E+01
        2 -1    0    0  502    0 0.00000000E+00 0.00000000E+00 -.32591932E+04 0.32591932E+04 0.00000000E+00 0.0000E+00 0.9000E+01
       23  2    1    2    0    0 0.69663709E+01 -.10072505E+02 -.32508778E+04 0.32523829E+04 0.98174830E+02 0.0000E+00 0.0000E+00
      -11  1    3    3    0    0 0.35512417E+02 0.12395789E+02 -.56086053E+03 0.56212038E+03 0.00000000E+00 0.0000E+00 0.9000E+01
       11  1    3    3    0    0 -.28546046E+02 -.22468293E+02 -.26900173E+04 0.26902626E+04 0.00000000E+00 0.0000E+00 0.9000E+01
        2  1    1    2  501    0 -.69663709E+01 0.10072505E+02 -.26048203E+01 0.12520813E+02 0.00000000E+00 0.0000E+00 0.9000E+01
#aMCatNLO 1  0  0  2  1 0.22499239D+03 0.00000000D+00  -5  6  0 0.00000000D+00 0.00000000D+00 0.00000000D+00 0.00000000D+00 0.00000000D+00
  <mgrwgt>
 0.2103298541D+04    7    2    0
 0.136425182155258D+03 0.000000000000000D+00 0.000000000000000D+00 0.136425182155258D+03
 0.136425182155258D+03 0.000000000000000D+00 0.000000000000000D+00 -.136425182155258D+03
 0.385520760300298D+02 0.355124165037892D+02 0.123957885389027D+02 -.845430463050681D+01
 0.115535346170419D+03 -.285460455537930D+02 -.224682930594054D+02 -.109675500021454D+03
 0.118762942110067D+03 -.696637094999616D+01 0.100725045205027D+02 0.118129804651961D+03
 0.000000000000000D+00 0.000000000000000D+00 -.000000000000000D+00 -.000000000000000D+00
 0.146427977525801D+03 0.000000000000000D+00 0.000000000000000D+00 0.146427977525801D+03
 0.160086787190443D+03 0.000000000000000D+00 0.000000000000000D+00 -.160086787190443D+03
 0.373661459383161D+02 0.329334750332971D+02 0.154964453256006D+02 -.845430463050681D+01
 0.116293690780486D+03 -.364212763212657D+02 -.129999169813251D+02 -.109675500021454D+03
 0.120734872077204D+03 -.151021100266739D+02 0.198540892798075D+02 0.118129804651961D+03
 0.321200559202371D+02 0.185899113146426D+02 -.223506176240831D+02 -.136588096646416D+02
0.494394746236D-01 0.000000000000D+00 0.000000000000D+00 0.403813228463D-02 0.000000000000D+00  6 21 2 -11 11 2 21 2 0.87854826D-03 0.50141434D+00 0.18571019D+04 0.14998567D+03 0.30903935D+04 0.14619507D+01  1  2  2  2  6  2        2 0.769284238858D+03
0.166225389861D-01 0.240027333360D-02 0.108915365192D-03 0.403813228463D-02 0.000000000000D+00  6 21 2 -11 11 2 21 4 0.87854826D-03 0.50141434D+00 0.18571019D+04 0.14998567D+03 0.30903935D+04 0.14619507D+01  1  2  3  2  6  2        2 0.353796207866D+03
0.506963945336D-02 0.000000000000D+00 0.000000000000D+00 0.403813228463D-02 0.000000000000D+00  6 21 2 -11 11 2 21 4 0.87854826D-03 0.50141434D+00 0.18571019D+04 0.14998567D+03 0.30903935D+04 0.14619507D+01  1  2 15  2  6  2        2 0.168599199538D+03
-.107105028729D+00 0.000000000000D+00 0.000000000000D+00 0.403813228463D-02 0.000000000000D+00  6 21 2 -11 11 2 21 4 0.87854826D-03 0.50141434D+00 0.18571019D+04 0.14998567D+03 0.30903935D+04 0.14619507D+01  1  2  4  2  6  2        2 -.356195391730D+04
-.155319970657D+00 0.000000000000D+00 -.741344743653D-01 0.403813228463D-02 0.000000000000D+00  6 21 2 -11 11 2 21 4 0.87854826D-03 0.59778721D+00 0.18571019D+04 0.14998567D+03 0.30903935D+04 0.14619507D+01  1  2  5  2  6  2        2 -.241174877263D+04
0.166899939844D+00 0.000000000000D+00 0.730702971246D-01 0.403813228463D-02 0.000000000000D+00  6 21 2 -11 11 2 21 4 0.87854826D-03 0.50141434D+00 0.18571019D+04 0.14998567D+03 0.30903935D+04 0.14619507D+01  1  2  6  2  6  2        2 0.678812269125D+04
-.333903693112D-02 0.000000000000D+00 -.191936356287D-02 0.403813183561D-02 0.000000000000D+00  6 21 21 -11 11 2 -2 4 0.87854826D-03 0.59778721D+00 0.18571019D+04 0.14998582D+03 0.30903938D+04 0.14619506D+01  1  2  5 10  6  2        2 -.280110651027D+01
  </mgrwgt>
  </event>
  <event npLO=' -1 ' npNLO=' 1 '>
  6     66 -.13416416E+02 0.33739376E+02 0.75467711E-02 0.13666504E+00
       21 -1    0    0  501  502 0.00000000E+00 0.00000000E+00 0.42157771E+01 0.42157771E+01 0.00000000E+00 0.0000E+00 0.9000E+01
        2 -1    0    0  502    0 0.00000000E+00 0.00000000E+00 -.12256421E+04 0.12256421E+04 0.00000000E+00 0.0000E+00 0.9000E+01
       23  2    1    2    0    0 0.32140278E+01 0.33585942E+02 -.10811004E+04 0.10855329E+04 0.92006354E+02 0.0000E+00 0.0000E+00
      -11  1    3    3    0    0 -.17875708E+01 -.31535083E+02 -.28049260E+03 0.28226540E+03 0.00000000E+00 0.0000E+00 0.9000E+01
       11  1    3    3    0    0 0.50015986E+01 0.65121025E+02 -.80060784E+03 0.80326750E+03 0.00000000E+00 0.0000E+00 0.9000E+01
        2  1    1    2  501    0 -.32140278E+01 -.33585942E+02 -.14032586E+03 0.14432495E+03 0.00000000E+00 0.0000E+00 0.9000E+01
#aMCatNLO 1  0  0  1  5 0.37111547D+02 0.00000000D+00  -5  6  0 0.00000000D+00 0.00000000D+00 0.00000000D+00 0.00000000D+00 0.00000000D+00
  <mgrwgt>
 -.2543579096D+04   14    2    0
 0.718820821009719D+02 0.000000000000000D+00 0.000000000000000D+00 0.718820821009719D+02
 0.718820821009719D+02 0.000000000000000D+00 0.000000000000000D+00 -.718820821009719D+02
 0.316162194185178D+02 -.178757078295843D+01 -.315350826099733D+02 -.138869931876505D+01
 0.697070281917827D+02 0.500159863266914D+01 0.651210249689796D+02 -.243578713650680D+02
 0.424409165916433D+02 -.321402784971071D+01 -.335859423590063D+02 0.257465706838330D+02
 0.000000000000000D+00 0.000000000000000D+00 -.000000000000000D+00 0.000000000000000D+00
 0.151813005202606D+04 0.000000000000000D+00 0.000000000000000D+00 0.151813005202606D+04
 0.744683799008101D+02 0.000000000000000D+00 0.000000000000000D+00 -.744683799008101D+02
 0.293037560340109D+02 -.863781378250877D+01 -.279672988499353D+02 -.138869931876505D+01
 0.785936403195292D+02 -.116743046117417D+02 0.738062667601511D+02 -.243578713650680D+02
 0.405640322279905D+02 -.125476506122939D+02 -.287247501769405D+02 0.257465706838330D+02
 0.144413700334534D+04 0.328597690065443D+02 -.171142177332754D+02 0.144366167212525D+04
0.247946229206D-04 0.000000000000D+00 0.000000000000D+00 0.841392818230D-03 0.000000000000D+00  6 21 2 -11 11 2 21 2 0.64858109D-03 0.18856032D+00 0.42665651D+04 0.11383455D+04 0.43386527D+04 0.13214706D+01  1  2  2  1  6  1       21 0.615493333731D+01
-.916989622350D-06 0.120377234318D-05 0.546226558992D-07 0.841392818230D-03 0.000000000000D+00  6 21 2 -11 11 2 21 4 0.64858109D-03 0.18856032D+00 0.42665651D+04 0.11383455D+04 0.43386527D+04 0.13214706D+01  1  2  3  1  6  1       21 -.108656369299D+01
0.228722912810D-05 0.000000000000D+00 0.000000000000D+00 0.841392818230D-03 0.000000000000D+00  6 21 2 -11 11 2 21 4 0.64858109D-03 0.18856032D+00 0.42665651D+04 0.11383455D+04 0.43386527D+04 0.13214706D+01  1  2 15  1  6  1       21 0.991494935226D+00
-.528695215677D+00 0.000000000000D+00 -.255490401887D-02 0.841392818230D-03 0.000000000000D+00  6 21 2 -11 11 2 21 4 0.14036850D-01 0.18856032D+00 0.42665651D+04 0.11383455D+04 0.43386527D+04 0.13214706D+01  1  2  5  1  6  1       21 -.200487592909D+04
-.234420771416D+00 0.000000000000D+00 -.113171167435D-02 0.841392818230D-03 0.000000000000D+00  6 -1 2 -11 11 2 -1 4 0.14036850D-01 0.18856032D+00 0.42665651D+04 0.11383455D+04 0.43386527D+04 0.13214706D+01  1  2  5  4  6  1       21 -.678244132586D+02
-.234420771416D+00 0.000000000000D+00 -.113171167435D-02 0.841392818230D-03 0.000000000000D+00  6 -3 2 -11 11 2 -3 4 0.14036850D-01 0.18856032D+00 0.42665651D+04 0.11383455D+04 0.43386527D+04 0.13214706D+01  1  2  5  4  6  1       21 -.543623194164D+02
-.234420771416D+00 0.000000000000D+00 -.113171167435D-02 0.841392818230D-03 0.000000000000D+00  6 -5 2 -11 11 2 -5 4 0.14036850D-01 0.18856032D+00 0.42665651D+04 0.11383455D+04 0.43386527D+04 0.13214706D+01  1  2  5  4  6  1       21 -.230028946438D+02
-.234420771416D+00 0.000000000000D+00 -.113171167435D-02 0.841392818230D-03 0.000000000000D+00  6 1 2 -11 11 2 1 4 0.14036850D-01 0.18856032D+00 0.42665651D+04 0.11383455D+04 0.43386527D+04 0.13214706D+01  1  2  5  5  6  1       21 -.866812534734D+02
-.234420771416D+00 0.000000000000D+00 -.113171167435D-02 0.841392818230D-03 0.000000000000D+00  6 3 2 -11 11 2 3 4 0.14036850D-01 0.18856032D+00 0.42665651D+04 0.11383455D+04 0.43386527D+04 0.13214706D+01  1  2  5  5  6  1       21 -.544162446920D+02
-.234420771416D+00 0.000000000000D+00 -.113171167435D-02 0.841392818230D-03 0.000000000000D+00  6 5 2 -11 11 2 5 4 0.14036850D-01 0.18856032D+00 0.42665651D+04 0.11383455D+04 0.43386527D+04 0.13214706D+01  1  2  5  5  6  1       21 -.229743655929D+02
-.234420771416D+00 0.000000000000D+00 -.113171167435D-02 0.841392818230D-03 0.000000000000D+00  6 -2 2 -11 11 2 -2 4 0.14036850D-01 0.18856032D+00 0.42665651D+04 0.11383455D+04 0.43386527D+04 0.13214706D+01  1  2  5  6  6  1       21 -.641939953775D+02
-.234420771416D+00 0.000000000000D+00 -.113171167435D-02 0.841392818230D-03 0.000000000000D+00  6 2 2 -11 11 2 2 4 0.14036850D-01 0.18856032D+00 0.42665651D+04 0.11383455D+04 0.43386527D+04 0.13214706D+01  1  2  5  7  6  1       21 -.100512222755D+03
-.234420771416D+00 0.000000000000D+00 -.113171167435D-02 0.841392818230D-03 0.000000000000D+00  6 -4 2 -11 11 2 -4 4 0.14036850D-01 0.18856032D+00 0.42665651D+04 0.11383455D+04 0.43386527D+04 0.13214706D+01  1  2  5  8  6  1       21 -.354396493120D+02
-.234420771416D+00 0.000000000000D+00 -.113171167435D-02 0.841392818230D-03 0.000000000000D+00  6 4 2 -11 11 2 4 4 0.14036850D-01 0.18856032D+00 0.42665651D+04 0.11383455D+04 0.43386527D+04 0.13214706D+01  1  2  5  9  6  1       21 -.353556730679D+02
  </mgrwgt>
  </event>
  <event npLO=' -1 ' npNLO=' 1 '>
  6     66 0.13416416E+02 0.14521328E+02 0.75467711E-02 0.16059537E+00
       21 -1    0    0  501  502 0.00000000E+00 0.00000000E+00 0.60657733E+02 0.60657733E+02 0.00000000E+00 0.0000E+00 0.9000E+01
        2 -1    0    0  502    0 0.00000000E+00 0.00000000E+00 -.64304972E+02 0.64304972E+02 0.00000000E+00 0.0000E+00 0.9000E+01
       23  2    1    2    0    0 0.10038854E+02 -.10492397E+02 -.30235981E+02 0.94666993E+02 0.88525454E+02 0.0000E+00 0.0000E+00
      -13  1    3    3    0    0 -.30607401E+02 -.10259236E+02 0.13472349E+02 0.34979553E+02 0.00000000E+00 0.0000E+00 0.9000E+01
       13  1    3    3    0    0 0.40646255E+02 -.23316086E+00 -.43708330E+02 0.59687440E+02 0.00000000E+00 0.0000E+00 0.9000E+01
        2  1    1    2  501    0 -.10038854E+02 0.10492397E+02 0.26588742E+02 0.30295712E+02 0.00000000E+00 0.0000E+00 0.9000E+01
#aMCatNLO 1  0  0  1  2 0.91860632D+01 0.00000000D+00  -5  6  0 0.00000000D+00 0.00000000D+00 0.00000000D+00 0.00000000D+00 0.00000000D+00
  <mgrwgt>
 0.4260287069D+03   49    2    0
 0.624547343042187D+02 0.000000000000000D+00 0.000000000000000D+00 0.624547343042187D+02
 0.624547343042187D+02 0.000000000000000D+00 0.000000000000000D+00 -.624547343042187D+02
 0.353878410778127D+02 -.306074012525808D+02 -.102592356975810D+02 0.144994609421705D+02
 0.584366370015198D+02 0.406462549196894D+02 -.233160860910170D+00 -.419841415425391D+02
 0.310849905291048D+02 -.100388536671086D+02 0.104923965584911D+02 0.274846806003686D+02
 0.000000000000000D+00 -.000000000000000D+00 0.000000000000000D+00 0.000000000000000D+00
 0.851350480368415D+02 0.000000000000000D+00 0.000000000000000D+00 0.851350480368415D+02
 0.635045679866940D+02 0.000000000000000D+00 0.000000000000000D+00 -.635045679866940D+02
 0.333209665906702D+02 -.281510033842676D+02 -.103717624048175D+02 0.144994609421705D+02
 0.614972885285079D+02 0.449339939884832D+02 -.429580653129030D+00 -.419841415425391D+02
 0.304115931824071D+02 -.784029889278677D+01 0.103916815511118D+02 0.274846806003686D+02
 0.234097677219503D+02 -.894269171142888D+01 0.409661506834721D+00 0.216304800501475D+02
0.214300322476D-03 0.000000000000D+00 0.000000000000D+00 0.666324027853D-03 0.000000000000D+00  6 21 2 -13 13 2 21 2 0.93319589D-02 0.98930726D-02 0.19118442D+04 0.21086897D+03 0.27159672D+04 0.14350506D+01  1  2  2  1  6  1       21 0.294425143056D+02
0.147394343386D-04 0.104042236156D-04 0.472104488590D-06 0.666324027853D-03 0.000000000000D+00  6 21 2 -13 13 2 21 4 0.93319589D-02 0.98930726D-02 0.19118442D+04 0.21086897D+03 0.27159672D+04 0.14350506D+01  1  2  3  1  6  1       21 -.227248538167D+01
0.188529659177D-04 0.000000000000D+00 0.000000000000D+00 0.666324027853D-03 0.000000000000D+00  6 21 2 -13 13 2 21 4 0.93319589D-02 0.98930726D-02 0.19118442D+04 0.21086897D+03 0.27159672D+04 0.14350506D+01  1  2 15  1  6  1       21 0.533416142347D+01
0.107603613894D-02 0.000000000000D+00 0.000000000000D+00 0.612053384421D-03 0.000000000000D+00  6 21 2 -13 13 2 21 4 0.12934673D-01 0.98930726D-02 0.23477208D+04 0.48443988D+03 0.31785585D+04 0.13753686D+01  1  2 12  1  6  1       21 0.151487826200D+03
0.107603613894D-02 0.000000000000D+00 0.000000000000D+00 0.612053384421D-03 0.000000000000D+00  6 21 2 -13 13 2 21 4 0.12934673D-01 0.98930726D-02 0.23477208D+04 0.48443988D+03 0.31785585D+04 0.13753686D+01  1  2 12  1  6  1       21 0.151487826200D+03
-.329776454175D-03 0.000000000000D+00 0.000000000000D+00 0.666324027853D-03 0.000000000000D+00  6 21 2 -13 13 2 21 4 0.93319589D-02 0.98930726D-02 0.19118442D+04 0.21086897D+03 0.27159672D+04 0.14350506D+01  1  2  4  1  6  1       21 -.933052575335D+02
-.226363861759D-02 0.000000000000D+00 -.215727993876D-03 0.666324027853D-03 0.000000000000D+00  6 21 2 -13 13 2 21 4 0.12896098D-01 0.98930726D-02 0.19118442D+04 0.21086897D+03 0.27159672D+04 0.14350506D+01  1  2  5  1  6  1       21 -.388656483630D+03
0.196036739119D-02 0.000000000000D+00 0.176500495658D-03 0.666324027853D-03 0.000000000000D+00  6 21 2 -13 13 2 21 4 0.93319589D-02 0.98930726D-02 0.19118442D+04 0.21086897D+03 0.27159672D+04 0.14350506D+01  1  2  6  1  6  1       21 0.572188561849D+03
0.235598614806D-07 0.000000000000D+00 0.000000000000D+00 0.666324027853D-03 0.207872028847D-03  6 21 2 -13 13 2 21 4 0.12720841D-01 0.10059370D-01 0.23477208D+04 0.48443988D+03 0.31785585D+04 0.13753686D+01  1  2 11  1  6  1       21 0.334251452647D-02
0.112406654953D-03 0.000000000000D+00 0.000000000000D+00 0.652971097406D-03 0.000000000000D+00  6 -1 2 -13 13 2 -1 4 0.12934673D-01 0.98930726D-02 0.23477208D+04 0.25535225D+03 0.28056033D+04 0.14205988D+01  1  2 12  4  6  1       21 0.133353215905D+01
0.112406654953D-03 0.000000000000D+00 0.000000000000D+00 0.652971097406D-03 0.000000000000D+00  6 -3 2 -13 13 2 -3 4 0.12934673D-01 0.98930726D-02 0.23477208D+04 0.25535225D+03 0.28056033D+04 0.14205988D+01  1  2 12  4  6  1       21 0.107840413979D+01
0.112406654953D-03 0.000000000000D+00 0.000000000000D+00 0.652971097406D-03 0.000000000000D+00  6 -5 2 -13 13 2 -5 4 0.12934673D-01 0.98930726D-02 0.23477208D+04 0.25535225D+03 0.28056033D+04 0.14205988D+01  1  2 12  4  6  1       21 0.442817421788D+00
0.112406654953D-03 0.000000000000D+00 0.000000000000D+00 0.652971097406D-03 0.000000000000D+00  6 -1 2 -13 13 2 -1 4 0.12934673D-01 0.98930726D-02 0.23477208D+04 0.25535225D+03 0.28056033D+04 0.14205988D+01  1  2 12  4  6  1       21 0.133353215905D+01
0.112406654953D-03 0.000000000000D+00 0.000000000000D+00 0.652971097406D-03 0.000000000000D+00  6 -3 2 -13 13 2 -3 4 0.12934673D-01 0.98930726D-02 0.23477208D+04 0.25535225D+03 0.28056033D+04 0.14205988D+01  1  2 12  4  6  1       21 0.107840413979D+01
0.112406654953D-03 0.000000000000D+00 0.000000000000D+00 0.652971097406D-03 0.000000000000D+00  6 -5 2 -13 13 2 -5 4 0.12934673D-01 0.98930726D-02 0.23477208D+04 0.25535225D+03 0.28056033D+04 0.14205988D+01  1  2 12  4  6  1       21 0.442817421788D+00
-.201602790410D-03 0.000000000000D+00 -.222826723398D-04 0.666324027853D-03 0.000000000000D+00  6 -1 2 -13 13 2 -1 4 0.12896098D-01 0.98930726D-02 0.19118442D+04 0.21086897D+03 0.27159672D+04 0.14350506D+01  1  2  5  4  6  1       21 -.259246397464D+01
-.201602790410D-03 0.000000000000D+00 -.222826723398D-04 0.666324027853D-03 0.000000000000D+00  6 -3 2 -13 13 2 -3 4 0.12896098D-01 0.98930726D-02 0.19118442D+04 0.21086897D+03 0.27159672D+04 0.14350506D+01  1  2  5  4  6  1       21 -.209685100892D+01
-.201602790410D-03 0.000000000000D+00 -.222826723398D-04 0.666324027853D-03 0.000000000000D+00  6 -5 2 -13 13 2 -5 4 0.12896098D-01 0.98930726D-02 0.19118442D+04 0.21086897D+03 0.27159672D+04 0.14350506D+01  1  2  5  4  6  1       21 -.858562933126D+00
0.102344046249D-07 0.000000000000D+00 0.000000000000D+00 0.666324027853D-03 0.138687249451D-04  6 -1 2 -13 13 2 -1 4 0.12720841D-01 0.10059370D-01 0.23477208D+04 0.25535225D+03 0.28056033D+04 0.14205988D+01  1  2 11  4  6  1       21 0.121925704930D-03
0.102344046249D-07 0.000000000000D+00 0.000000000000D+00 0.666324027853D-03 0.138687249451D-04  6 -3 2 -13 13 2 -3 4 0.12720841D-01 0.10059370D-01 0.23477208D+04 0.25535225D+03 0.28056033D+04 0.14205988D+01  1  2 11  4  6  1       21 0.988334171789D-04
0.102344046249D-07 0.000000000000D+00 0.000000000000D+00 0.666324027853D-03 0.138687249451D-04  6 -5 2 -13 13 2 -5 4 0.12720841D-01 0.10059370D-01 0.23477208D+04 0.25535225D+03 0.28056033D+04 0.14205988D+01  1  2 11  4  6  1       21 0.406713745380D-04
0.112406654953D-03 0.000000000000D+00 0.000000000000D+00 0.652971097406D-03 0.000000000000D+00  6 1 2 -13 13 2 1 4 0.12934673D-01 0.98930726D-02 0.23477208D+04 0.25535225D+03 0.28056033D+04 0.14205988D+01  1  2 12  5  6  1       21 0.167815944855D+01
0.112406654953D-03 0.000000000000D+00 0.000000000000D+00 0.652971097406D-03 0.000000000000D+00  6 3 2 -13 13 2 3 4 0.12934673D-01 0.98930726D-02 0.23477208D+04 0.25535225D+03 0.28056033D+04 0.14205988D+01  1  2 12  5  6  1       21 0.107926108675D+01
0.112406654953D-03 0.000000000000D+00 0.000000000000D+00 0.652971097406D-03 0.000000000000D+00  6 5 2 -13 13 2 5 4 0.12934673D-01 0.98930726D-02 0.23477208D+04 0.25535225D+03 0.28056033D+04 0.14205988D+01  1  2 12  5  6  1       21 0.442302893373D+00
0.112406654953D-03 0.000000000000D+00 0.000000000000D+00 0.652971097406D-03 0.000000000000D+00  6 1 2 -13 13 2 1 4 0.12934673D-01 0.98930726D-02 0.23477208D+04 0.25535225D+03 0.28056033D+04 0.14205988D+01  1  2 12  5  6  1       21 0.167815944855D+01
0.112406654953D-03 0.000000000000D+00 0.000000000000D+00 0.652971097406D-03 0.000000000000D+00  6 3 2 -13 13 2 3 4 0.12934673D-01 0.98930726D-02 0.23477208D+04 0.25535225D+03 0.28056033D+04 0.14205988D+01  1  2 12  5  6  1       21 0.107926108675D+01
0.112406654953D-03 0.000000000000D+00 0.000000000000D+00 0.652971097406D-03 0.000000000000D+00  6 5 2 -13 13 2 5 4 0.12934673D-01 0.98930726D-02 0.23477208D+04 0.25535225D+03 0.28056033D+04 0.14205988D+01  1  2 12  5  6  1       21 0.442302893373D+00
-.201602790410D-03 0.000000000000D+00 -.222826723398D-04 0.666324027853D-03 0.000000000000D+00  6 1 2 -13 13 2 1 4 0.12896098D-01 0.98930726D-02 0.19118442D+04 0.21086897D+03 0.27159672D+04 0.14350506D+01  1  2  5  5  6  1       21 -.326077095089D+01
-.201602790410D-03 0.000000000000D+00 -.222826723398D-04 0.666324027853D-03 0.000000000000D+00  6 3 2 -13 13 2 3 4 0.12896098D-01 0.98930726D-02 0.19118442D+04 0.21086897D+03 0.27159672D+04 0.14350506D+01  1  2  5  5  6  1       21 -.209849713012D+01
-.201602790410D-03 0.000000000000D+00 -.222826723398D-04 0.666324027853D-03 0.000000000000D+00  6 5 2 -13 13 2 5 4 0.12896098D-01 0.98930726D-02 0.19118442D+04 0.21086897D+03 0.27159672D+04 0.14350506D+01  1  2  5  5  6  1       21 -.857567001470D+00
0.106190813173D-07 0.000000000000D+00 0.000000000000D+00 0.666324027853D-03 0.143900034595D-04  6 1 2 -13 13 2 1 4 0.12720841D-01 0.10059370D-01 0.23477208D+04 0.25535225D+03 0.28056033D+04 0.14205988D+01  1  2 11  5  6  1       21 0.158708221386D-03
0.106190813173D-07 0.000000000000D+00 0.000000000000D+00 0.666324027853D-03 0.143900034595D-04  6 3 2 -13 13 2 3 4 0.12720841D-01 0.10059370D-01 0.23477208D+04 0.25535225D+03 0.28056033D+04 0.14205988D+01  1  2 11  5  6  1       21 0.102627880795D-03
0.106190813173D-07 0.000000000000D+00 0.000000000000D+00 0.666324027853D-03 0.143900034595D-04  6 5 2 -13 13 2 5 4 0.12720841D-01 0.10059370D-01 0.23477208D+04 0.25535225D+03 0.28056033D+04 0.14205988D+01  1  2 11  5  6  1       21 0.421518868788D-04
0.112406654953D-03 0.000000000000D+00 0.000000000000D+00 0.612053384421D-03 0.000000000000D+00  6 -2 2 -13 13 2 -2 4 0.12934673D-01 0.98930726D-02 0.23477208D+04 0.48443988D+03 0.31785585D+04 0.13753686D+01  1  2 12  6  6  1       21 0.112368864844D+01
0.112406654953D-03 0.000000000000D+00 0.000000000000D+00 0.612053384421D-03 0.000000000000D+00  6 -2 2 -13 13 2 -2 4 0.12934673D-01 0.98930726D-02 0.23477208D+04 0.48443988D+03 0.31785585D+04 0.13753686D+01  1  2 12  6  6  1       21 0.112368864844D+01
-.201602790410D-03 0.000000000000D+00 -.222826723398D-04 0.666324027853D-03 0.000000000000D+00  6 -2 2 -13 13 2 -2 4 0.12896098D-01 0.98930726D-02 0.19118442D+04 0.21086897D+03 0.27159672D+04 0.14350506D+01  1  2  5  6  6  1       21 -.246483279864D+01
0.126681122589D-07 0.000000000000D+00 0.000000000000D+00 0.666324027853D-03 0.105168246961D-03  6 -2 2 -13 13 2 -2 4 0.12720841D-01 0.10059370D-01 0.23477208D+04 0.48443988D+03 0.31785585D+04 0.13753686D+01  1  2 11  6  6  1       21 0.127290309213D-03
0.112406654953D-03 0.000000000000D+00 0.000000000000D+00 0.652971097406D-03 0.000000000000D+00  6 2 2 -13 13 2 2 4 0.12934673D-01 0.98930726D-02 0.23477208D+04 0.25535225D+03 0.28056033D+04 0.14205988D+01  1  2 12  7  6  1       21 0.192940699031D+01
0.112406654953D-03 0.000000000000D+00 0.000000000000D+00 0.652971097406D-03 0.000000000000D+00  6 2 2 -13 13 2 2 4 0.12934673D-01 0.98930726D-02 0.23477208D+04 0.25535225D+03 0.28056033D+04 0.14205988D+01  1  2 12  7  6  1       21 0.192940699031D+01
-.201602790410D-03 0.000000000000D+00 -.222826723398D-04 0.666324027853D-03 0.000000000000D+00  6 2 2 -13 13 2 2 4 0.12896098D-01 0.98930726D-02 0.19118442D+04 0.21086897D+03 0.27159672D+04 0.14350506D+01  1  2  5  7  6  1       21 -.374781860630D+01
0.118547805129D-07 0.000000000000D+00 0.000000000000D+00 0.666324027853D-03 0.119048451890D-04  6 2 2 -13 13 2 2 4 0.12720841D-01 0.10059370D-01 0.23477208D+04 0.25535225D+03 0.28056033D+04 0.14205988D+01  1  2 11  7  6  1       21 0.203363812962D-03
0.112406654953D-03 0.000000000000D+00 0.000000000000D+00 0.652971097406D-03 0.000000000000D+00  6 -4 2 -13 13 2 -4 4 0.12934673D-01 0.98930726D-02 0.23477208D+04 0.25535225D+03 0.28056033D+04 0.14205988D+01  1  2 12  8  6  1       21 0.698830995976D+00
0.112406654953D-03 0.000000000000D+00 0.000000000000D+00 0.652971097406D-03 0.000000000000D+00  6 -4 2 -13 13 2 -4 4 0.12934673D-01 0.98930726D-02 0.23477208D+04 0.25535225D+03 0.28056033D+04 0.14205988D+01  1  2 12  8  6  1       21 0.698830995976D+00
-.201602790410D-03 0.000000000000D+00 -.222826723398D-04 0.666324027853D-03 0.000000000000D+00  6 -4 2 -13 13 2 -4 4 0.12896098D-01 0.98930726D-02 0.19118442D+04 0.21086897D+03 0.27159672D+04 0.14350506D+01  1  2  5  8  6  1       21 -.135766128301D+01
0.939174259118D-08 0.000000000000D+00 0.000000000000D+00 0.666324027853D-03 0.127268267697D-04  6 -4 2 -13 13 2 -4 4 0.12720841D-01 0.10059370D-01 0.23477208D+04 0.25535225D+03 0.28056033D+04 0.14205988D+01  1  2 11  8  6  1       21 0.588802547546D-04
0.112406654953D-03 0.000000000000D+00 0.000000000000D+00 0.652971097406D-03 0.000000000000D+00  6 4 2 -13 13 2 4 4 0.12934673D-01 0.98930726D-02 0.23477208D+04 0.25535225D+03 0.28056033D+04 0.14205988D+01  1  2 12  9  6  1       21 0.697277101497D+00
0.112406654953D-03 0.000000000000D+00 0.000000000000D+00 0.652971097406D-03 0.000000000000D+00  6 4 2 -13 13 2 4 4 0.12934673D-01 0.98930726D-02 0.23477208D+04 0.25535225D+03 0.28056033D+04 0.14205988D+01  1  2 12  9  6  1       21 0.697277101497D+00
-.201602790410D-03 0.000000000000D+00 -.222826723398D-04 0.666324027853D-03 0.000000000000D+00  6 4 2 -13 13 2 4 4 0.12896098D-01 0.98930726D-02 0.19118442D+04 0.21086897D+03 0.27159672D+04 0.14350506D+01  1  2  5  9  6  1       21 -.135464729371D+01
0.922255439110D-08 0.000000000000D+00 0.000000000000D+00 0.666324027853D-03 0.124975584637D-04  6 4 2 -13 13 2 4 4 0.12720841D-01 0.10059370D-01 0.23477208D+04 0.25535225D+03 0.28056033D+04 0.14205988D+01  1  2 11  9  6  1       21 0.576931587803D-04
  </mgrwgt>
  </event>
  <event npLO=' -1 ' npNLO=' 1 '>
  7     66 0.13416416E+02 0.11191094E+02 0.75467711E-02 0.15321269E+00
       21 -1    0    0  501  502 0.00000000E+00 0.00000000E+00 0.24006261E+02 0.24006261E+02 0.00000000E+00 0.0000E+00 0.9000E+01
        2 -1    0    0  502    0 -.00000000E+00 -.00000000E+00 -.87656797E+03 0.87656797E+03 0.00000000E+00 0.0000E+00 0.9000E+01
       23  2    1    2    0    0 0.20608832E+02 -.61067733E+01 -.86216120E+03 0.86656150E+03 0.84527325E+02 0.0000E+00 0.0000E+00
      -11  1    3    3    0    0 0.14228672E+02 0.36008292E+02 -.56976273E+03 0.57107672E+03 0.00000000E+00 0.0000E+00 0.9000E+01
       11  1    3    3    0    0 0.63801599E+01 -.42115065E+02 -.29239847E+03 0.29548477E+03 0.00000000E+00 0.0000E+00 0.9000E+01
        2  1    1    2  503    0 -.10454053E+02 0.14302638E+02 -.16122482E+00 0.17716621E+02 0.00000000E+00 0.0000E+00 0.9000E+01
       21  1    1    2  501  503 -.10154779E+02 -.81958647E+01 0.97607180E+01 0.16296114E+02 0.00000000E+00 0.0000E+00 0.9000E+01
#aMCatNLO 2  0  0  5  1 0.12063143D+02 0.00000000D+00  -5  6  0 0.00000000D+00 0.00000000D+00 0.00000000D+00 0.00000000D+00 0.00000000D+00
  <mgrwgt>
 0.1864642980D+04    1    2    0
 0.145062466479359D+03 0.000000000000000D+00 0.000000000000000D+00 0.145062466479359D+03
 0.145062466479359D+03 -.000000000000000D+00 -.000000000000000D+00 -.145062466479359D+03
 0.990770111216117D+02 0.143502814873405D+02 0.359722568592183D+02 -.911938610350526D+02
 0.582988897610782D+02 0.645177097967814D+01 -.421362849632514D+02 -.397701984920343D+02
 0.132749032076028D+03 -.208020524670187D+02 0.616402810403312D+01 0.130964059527087D+03
 0.000000000000000D+00 0.000000000000000D+00 0.000000000000000D+00 0.000000000000000D+00
 0.145062466479359D+03 0.000000000000000D+00 0.000000000000000D+00 0.145062466479359D+03
 0.145062466479359D+03 -.000000000000000D+00 -.000000000000000D+00 -.145062466479359D+03
 0.983682819735025D+02 0.142286719696698D+02 0.360082919805521D+02 -.904282406167528D+02
 0.579689296581793D+02 0.638015988569579D+01 -.421150652880983D+02 -.393193545385363D+02
 0.545202315294497D+02 -.104540529725861D+02 0.143026380160824D+02 0.515616424122824D+02
 0.792674897975863D+02 -.101547788827795D+02 -.819586470853616D+01 0.781859527430067D+02
0.305505118165D-01 0.000000000000D+00 0.000000000000D+00 0.836969686839D-03 0.117205917621D-03  6 21 2 -11 11 2 21 4 0.36932709D-02 0.13485661D+00 0.31404071D+04 0.40503281D+03 0.28630844D+04 0.13875617D+01  1  2  1  3  6  5        2 0.186464297964D+04
  </mgrwgt>
  </event>
  <event npLO=' -1 ' npNLO=' 1 '>
  6     66 -.13416416E+02 0.24415086E+02 0.75467711E-02 0.12730150E+00
       21 -1    0    0  501  502 0.00000000E+00 0.00000000E+00 0.15579356E+02 0.15579356E+02 0.00000000E+00 0.0000E+00 0.9000E+01
        2 -1    0    0  502    0 0.00000000E+00 0.00000000E+00 -.41288333E+03 0.41288333E+03 0.00000000E+00 0.0000E+00 0.9000E+01
       23  2    1    2    0    0 -.10989734E+02 -.21801884E+02 -.13131263E+03 0.16135317E+03 0.90530345E+02 0.0000E+00 0.0000E+00
      -11  1    3    3    0    0 0.16402931E+02 0.10797823E+02 0.35251877E+01 0.19951844E+02 0.00000000E+00 0.0000E+00 0.9000E+01
       11  1    3    3    0    0 -.27392665E+02 -.32599707E+02 -.13483781E+03 0.14140133E+03 0.00000000E+00 0.0000E+00 0.9000E+01
        2  1    1    2  501    0 0.10989734E+02 0.21801884E+02 -.26599135E+03 0.26710952E+03 0.00000000E+00 0.0000E+00 0.9000E+01
#aMCatNLO 1  0  0  1  2 0.31093459D+01 0.00000000D+00  -5  6  0 0.00000000D+00 0.00000000D+00 0.00000000D+00 0.00000000D+00 0.00000000D+00
  <mgrwgt>
 -.6266237048D+03   14    2    0
 0.802025966715556D+02 0.000000000000000D+00 0.000000000000000D+00 0.802025966715556D+02
 0.802025966715556D+02 0.000000000000000D+00 0.000000000000000D+00 -.802025966715556D+02
 0.620253727967784D+02 0.164029314970544D+02 0.107978226725755D+02 0.588344944264323D+02
 0.437242252950509D+02 -.273926651616751D+02 -.325997070685547D+02 -.993523386927248D+01
 0.546555952512819D+02 0.109897336646207D+02 0.218018843959793D+02 -.488992605571598D+02
 0.000000000000000D+00 0.000000000000000D+00 -.000000000000000D+00 0.000000000000000D+00
 0.892433944646153D+03 0.000000000000000D+00 0.000000000000000D+00 0.892433944646153D+03
 0.860634360636271D+02 0.000000000000000D+00 0.000000000000000D+00 -.860634360636271D+02
 0.612748490017488D+02 -.392179788854178D+01 0.166651998816289D+02 0.588344944264323D+02
 0.524844601225209D+02 -.432516430867209D+02 -.280215105341281D+02 -.993523386927248D+01
 0.563758182453011D+02 -.731261323874251D+01 0.270854368141033D+02 -.488992605571598D+02
 0.808362253340209D+03 0.544860542140052D+02 -.157291261616040D+02 0.806370508582526D+03
0.704088597418D-04 0.000000000000D+00 0.000000000000D+00 0.310588367785D-03 0.000000000000D+00  6 21 2 -11 11 2 21 2 0.23968240D-02 0.63520513D-01 0.18763425D+04 0.59609701D+03 0.34916227D+04 0.13616572D+01  1  2  2  1  6  1       21 0.955602299380D+01
-.667992218046D-05 0.341833139964D-05 0.155111006537D-06 0.310588367785D-03 0.000000000000D+00  6 21 2 -11 11 2 21 4 0.23968240D-02 0.63520513D-01 0.18763425D+04 0.59609701D+03 0.34916227D+04 0.13616572D+01  1  2  3  1  6  1       21 -.264308837441D+01
0.533582177740D-05 0.000000000000D+00 0.000000000000D+00 0.310588367785D-03 0.000000000000D+00  6 21 2 -11 11 2 21 4 0.23968240D-02 0.63520513D-01 0.18763425D+04 0.59609701D+03 0.34916227D+04 0.13616572D+01  1  2 15  1  6  1       21 0.134272405854D+01
-.104585152038D+00 0.000000000000D+00 -.204898036123D-02 0.310588367785D-03 0.000000000000D+00  6 21 2 -11 11 2 21 4 0.28017190D-01 0.63520513D-01 0.18763425D+04 0.59609701D+03 0.34916227D+04 0.13616572D+01  1  2  5  1  6  1       21 -.480216461078D+03
-.460959396009D-01 0.000000000000D+00 -.899841204683D-03 0.310588367785D-03 0.000000000000D+00  6 -1 2 -11 11 2 -1 4 0.28017190D-01 0.63520513D-01 0.18763425D+04 0.59609701D+03 0.34916227D+04 0.13616572D+01  1  2  5  4  6  1       21 -.189163394246D+02
-.460959396009D-01 0.000000000000D+00 -.899841204683D-03 0.310588367785D-03 0.000000000000D+00  6 -3 2 -11 11 2 -3 4 0.28017190D-01 0.63520513D-01 0.18763425D+04 0.59609701D+03 0.34916227D+04 0.13616572D+01  1  2  5  4  6  1       21 -.131710383306D+02
-.460959396009D-01 0.000000000000D+00 -.899841204683D-03 0.310588367785D-03 0.000000000000D+00  6 -5 2 -11 11 2 -5 4 0.28017190D-01 0.63520513D-01 0.18763425D+04 0.59609701D+03 0.34916227D+04 0.13616572D+01  1  2  5  4  6  1       21 -.502865574047D+01
-.460959396009D-01 0.000000000000D+00 -.899841204683D-03 0.310588367785D-03 0.000000000000D+00  6 1 2 -11 11 2 1 4 0.28017190D-01 0.63520513D-01 0.18763425D+04 0.59609701D+03 0.34916227D+04 0.13616572D+01  1  2  5  5  6  1       21 -.293246113319D+02
-.460959396009D-01 0.000000000000D+00 -.899841204683D-03 0.310588367785D-03 0.000000000000D+00  6 3 2 -11 11 2 3 4 0.28017190D-01 0.63520513D-01 0.18763425D+04 0.59609701D+03 0.34916227D+04 0.13616572D+01  1  2  5  5  6  1       21 -.132198911117D+02
-.460959396009D-01 0.000000000000D+00 -.899841204683D-03 0.310588367785D-03 0.000000000000D+00  6 5 2 -11 11 2 5 4 0.28017190D-01 0.63520513D-01 0.18763425D+04 0.59609701D+03 0.34916227D+04 0.13616572D+01  1  2  5  5  6  1       21 -.501679900232D+01
-.460959396009D-01 0.000000000000D+00 -.899841204683D-03 0.310588367785D-03 0.000000000000D+00  6 -2 2 -11 11 2 -2 4 0.28017190D-01 0.63520513D-01 0.18763425D+04 0.59609701D+03 0.34916227D+04 0.13616572D+01  1  2  5  6  6  1       21 -.170354732636D+02
-.460959396009D-01 0.000000000000D+00 -.899841204683D-03 0.310588367785D-03 0.000000000000D+00  6 2 2 -11 11 2 2 4 0.28017190D-01 0.63520513D-01 0.18763425D+04 0.59609701D+03 0.34916227D+04 0.13616572D+01  1  2  5  7  6  1       21 -.370057594998D+02
-.460959396009D-01 0.000000000000D+00 -.899841204683D-03 0.310588367785D-03 0.000000000000D+00  6 -4 2 -11 11 2 -4 4 0.28017190D-01 0.63520513D-01 0.18763425D+04 0.59609701D+03 0.34916227D+04 0.13616572D+01  1  2  5  8  6  1       21 -.798983831491D+01
-.460959396009D-01 0.000000000000D+00 -.899841204683D-03 0.310588367785D-03 0.000000000000D+00  6 4 2 -11 11 2 4 4 0.28017190D-01 0.63520513D-01 0.18763425D+04 0.59609701D+03 0.34916227D+04 0.13616572D+01  1  2  5  9  6  1       21 -.795449637719D+01
  </mgrwgt>
  </event>
  <event npLO=' -1 ' npNLO=' 1 '>
  6     66 0.13416416E+02 0.28370277E+02 0.75467711E-02 0.11476137E+00
       21 -1    0    0  501  502 0.00000000E+00 0.00000000E+00 0.14045561E+01 0.14045561E+01 0.00000000E+00 0.0000E+00 0.9000E+01
        2 -1    0    0  502    0 0.00000000E+00 0.00000000E+00 -.36607743E+04 0.36607743E+04 0.00000000E+00 0.0000E+00 0.9000E+01
       23  2    1    2    0    0 0.28364349E+02 0.57990156E+00 -.33868221E+04 0.33881586E+04 0.90829578E+02 0.0000E+00 0.0000E+00
      -13  1    3    3    0    0 -.30271948E+02 -.99304797E+01 -.77043439E+03 0.77109283E+03 0.00000000E+00 0.0000E+00 0.9000E+01
       13  1    3    3    0    0 0.58636298E+02 0.10510381E+02 -.26163877E+04 0.26170658E+04 0.00000000E+00 0.0000E+00 0.9000E+01
        2  1    1    2  501    0 -.28364349E+02 -.57990156E+00 -.27254764E+03 0.27402024E+03 0.00000000E+00 0.0000E+00 0.9000E+01
#aMCatNLO 1  0  0  1  1 0.12080083D+03 0.00000000D+00  -5  6  0 0.00000000D+00 0.00000000D+00 0.00000000D+00 0.00000000D+00 0.00000000D+00
  <mgrwgt>
 0.5177999673D+03   14    2    0
 0.717060869321722D+02 0.000000000000000D+00 0.000000000000000D+00 0.717060869321722D+02
 0.717060869321722D+02 0.000000000000000D+00 0.000000000000000D+00 -.717060869321722D+02
 0.319050088990513D+02 -.302719482826092D+02 -.993047970680783D+01 0.171006222584226D+01
 0.685643695305146D+02 0.586362977091437D+02 0.105103812650142D+02 -.339468591440455D+02
 0.429427954347785D+02 -.283643494265345D+02 -.579901558206409D+00 0.322367969182032D+02
 0.000000000000000D+00 -.000000000000000D+00 0.000000000000000D+00 0.000000000000000D+00
 0.287594605428812D+03 0.000000000000000D+00 0.000000000000000D+00 0.287594605428812D+03
 0.105574616064046D+03 0.000000000000000D+00 0.000000000000000D+00 -.105574616064046D+03
 0.202688526975502D+02 -.133773610306993D+02 -.151310372649419D+02 0.171006222584226D+01
 0.126878498805086D+03 0.121923286458208D+03 -.897086576179818D+01 -.339468591440455D+02
 0.334591202784054D+02 -.362439743276575D+01 -.819544980514709D+01 0.322367969182032D+02
 0.212562749711817D+03 -.104921527994743D+03 0.322973528318872D+02 0.182019989364766D+03
0.224107261886D-02 0.000000000000D+00 0.000000000000D+00 0.158424179989D-02 0.000000000000D+00  6 21 2 -13 13 2 21 2 0.21608556D-03 0.56319605D+00 0.35880251D+04 0.80487260D+03 0.38147569D+04 0.13425369D+01  1  2  2  1  6  1       21 0.116871236204D+03
-.353836744063D-04 0.108803479136D-03 0.493709216297D-05 0.158424179989D-02 0.000000000000D+00  6 21 2 -13 13 2 21 4 0.21608556D-03 0.56319605D+00 0.35880251D+04 0.80487260D+03 0.38147569D+04 0.13425369D+01  1  2  3  1  6  1       21 -.185834253635D+02
0.213053375881D-03 0.000000000000D+00 0.000000000000D+00 0.158424179989D-02 0.000000000000D+00  6 21 2 -13 13 2 21 4 0.21608556D-03 0.56319605D+00 0.35880251D+04 0.80487260D+03 0.38147569D+04 0.13425369D+01  1  2 15  1  6  1       21 0.200259248530D+02
0.133597698195D+00 0.000000000000D+00 -.709806386704D-01 0.158424179989D-02 0.000000000000D+00  6 21 2 -13 13 2 21 4 0.26291044D-02 0.56319605D+00 0.35880251D+04 0.80487260D+03 0.38147569D+04 0.13425369D+01  1  2  5  1  6  1       21 0.329227363168D+03
0.593156483440D-01 0.000000000000D+00 -.312020547797D-01 0.158424179989D-02 0.000000000000D+00  6 -1 2 -13 13 2 -1 4 0.26291044D-02 0.56319605D+00 0.35880251D+04 0.80487260D+03 0.38147569D+04 0.13425369D+01  1  2  5  4  6  1       21 0.842471217787D+01
0.593156483440D-01 0.000000000000D+00 -.312020547797D-01 0.158424179989D-02 0.000000000000D+00  6 -3 2 -13 13 2 -3 4 0.26291044D-02 0.56319605D+00 0.35880251D+04 0.80487260D+03 0.38147569D+04 0.13425369D+01  1  2  5  4  6  1       21 0.771823992320D+01
0.593156483440D-01 0.000000000000D+00 -.312020547797D-01 0.158424179989D-02 0.000000000000D+00  6 -5 2 -13 13 2 -5 4 0.26291044D-02 0.56319605D+00 0.35880251D+04 0.80487260D+03 0.38147569D+04 0.13425369D+01  1  2  5  4  6  1       21 0.395214605825D+01
0.593156483440D-01 0.000000000000D+00 -.312020547797D-01 0.158424179989D-02 0.000000000000D+00  6 1 2 -13 13 2 1 4 0.26291044D-02 0.56319605D+00 0.35880251D+04 0.80487260D+03 0.38147569D+04 0.13425369D+01  1  2  5  5  6  1       21 0.900615697987D+01
0.593156483440D-01 0.000000000000D+00 -.312020547797D-01 0.158424179989D-02 0.000000000000D+00  6 3 2 -13 13 2 3 4 0.26291044D-02 0.56319605D+00 0.35880251D+04 0.80487260D+03 0.38147569D+04 0.13425369D+01  1  2  5  5  6  1       21 0.770422700175D+01
0.593156483440D-01 0.000000000000D+00 -.312020547797D-01 0.158424179989D-02 0.000000000000D+00  6 5 2 -13 13 2 5 4 0.26291044D-02 0.56319605D+00 0.35880251D+04 0.80487260D+03 0.38147569D+04 0.13425369D+01  1  2  5  5  6  1       21 0.395179351220D+01
0.593156483440D-01 0.000000000000D+00 -.312020547797D-01 0.158424179989D-02 0.000000000000D+00  6 -2 2 -13 13 2 -2 4 0.26291044D-02 0.56319605D+00 0.35880251D+04 0.80487260D+03 0.38147569D+04 0.13425369D+01  1  2  5  6  6  1       21 0.840401562078D+01
0.593156483440D-01 0.000000000000D+00 -.312020547797D-01 0.158424179989D-02 0.000000000000D+00  6 2 2 -13 13 2 2 4 0.26291044D-02 0.56319605D+00 0.35880251D+04 0.80487260D+03 0.38147569D+04 0.13425369D+01  1  2  5  7  6  1       21 0.940183132999D+01
0.593156483440D-01 0.000000000000D+00 -.312020547797D-01 0.158424179989D-02 0.000000000000D+00  6 -4 2 -13 13 2 -4 4 0.26291044D-02 0.56319605D+00 0.35880251D+04 0.80487260D+03 0.38147569D+04 0.13425369D+01  1  2  5  8  6  1       21 0.584839464833D+01
0.593156483440D-01 0.000000000000D+00 -.312020547797D-01 0.158424179989D-02 0.000000000000D+00  6 4 2 -13 13 2 4 4 0.26291044D-02 0.56319605D+00 0.35880251D+04 0.80487260D+03 0.38147569D+04 0.13425369D+01  1  2  5  9  6  1       21 0.584735113721D+01
  </mgrwgt>
  </event>
  <event npLO=' -1 ' npNLO=' 1 '>
  6     66 0.13416416E+02 0.14550277E+02 0.75467711E-02 0.16380972E+00
       21 -1    0    0  501  502 0.00000000E+00 0.00000000E+00 0.81679509E+01 0.81679509E+01 0.00000000E+00 0.0000E+00 0.9000E+01
        2 -1    0    0  502    0 0.00000000E+00 0.00000000E+00 -.51922427E+03 0.51922427E+03 0.00000000E+00 0.0000E+00 0.9000E+01
       23  2    1    2    0    0 0.12759414E+02 0.69934182E+01 -.50155679E+03 0.51001546E+03 0.91350154E+02 0.0000E+00 0.0000E+00
      -11  1    3    3    0    0 -.33150430E+02 -.10837879E+02 -.11060440E+03 0.11597303E+03 0.00000000E+00 0.0000E+00 0.9000E+01
       11  1    3    3    0    0 0.45909844E+02 0.17831297E+02 -.39095238E+03 0.39404243E+03 0.00000000E+00 0.0000E+00 0.9000E+01
        2  1    1    2  501    0 -.12759414E+02 -.69934182E+01 -.94995271E+01 0.17376754E+02 0.00000000E+00 0.0000E+00 0.9000E+01
#aMCatNLO 1  0  0  1  1 0.12080083D+03 0.00000000D+00  -5  6  0 0.00000000D+00 0.00000000D+00 0.00000000D+00 0.00000000D+00 0.00000000D+00
  <mgrwgt>
 0.1054898806D+02    1    2    0
 0.651229476099892D+02 0.000000000000000D+00 0.000000000000000D+00 0.651229476099892D+02
 0.651229476099892D+02 0.000000000000000D+00 0.000000000000000D+00 -.651229476099892D+02
 0.356110782920750D+02 -.331504297833986D+02 -.108378787338728D+02 0.719293311870230D+01
 0.615468547108295D+02 0.459098439854184D+02 0.178312969533966D+02 -.369099769573253D+02
 0.330879622170740D+02 -.127594142020198D+02 -.699341821952385D+01 0.297170438386230D+02
 0.000000000000000D+00 -.000000000000000D+00 0.000000000000000D+00 -.000000000000000D+00
 0.801043564978809D+02 0.000000000000000D+00 0.000000000000000D+00 0.801043564978809D+02
 0.841780136034954D+02 0.000000000000000D+00 0.000000000000000D+00 -.841780136034954D+02
 0.384622459808615D+02 -.324763111585686D+02 -.193104969530565D+02 0.719293311870230D+01
 0.599023304583519D+02 0.470151158021834D+02 0.393975652275635D+01 -.369099769573253D+02
 0.353566976039256D+02 -.121365203274925D+02 -.148222213345085D+02 0.297170438386230D+02
 0.305610960582373D+02 -.240228431612226D+01 0.301929617648086D+02 -.407365710561453D+01
0.168956506622D-04 0.000000000000D+00 0.000000000000D+00 0.484803666912D-02 0.000000000000D+00  6 21 2 -11 11 2 21 4 0.12566078D-02 0.79880656D-01 0.24343584D+04 0.21171055D+03 0.28650305D+04 0.14347451D+01  1  2 14  1  6  1       21 0.105489880571D+02
  </mgrwgt>
  </event>
  <event npLO=' -1 ' npNLO=' 1 '>
  6     66 0.13416416E+02 0.22527463E+02 0.75467711E-02 0.15004107E+00
       21 -1    0    0  501  502 0.00000000E+00 0.00000000E+00 0.40907291E+01 0.40907291E+01 0.00000000E+00 0.0000E+00 0.9000E+01
        2 -1    0    0  502    0 0.00000000E+00 0.00000000E+00 -.82502461E+03 0.82502461E+03 0.00000000E+00 0.0000E+00 0.9000E+01
       23  2    1    2    0    0 0.20130111E+02 0.10112627E+02 -.67483793E+03 0.68129277E+03 0.90808112E+02 0.0000E+00 0.0000E+00
      -11  1    3    3    0    0 -.48810389E+01 -.24357735E+02 -.52315396E+03 0.52374344E+03 0.00000000E+00 0.0000E+00 0.9000E+01
       11  1    3    3    0    0 0.25011149E+02 0.34470362E+02 -.15168397E+03 0.15754933E+03 0.00000000E+00 0.0000E+00 0.9000E+01
        2  1    1    2  501    0 -.20130111E+02 -.10112627E+02 -.14609595E+03 0.14782257E+03 0.00000000E+00 0.0000E+00 0.9000E+01
#aMCatNLO 1  0  0  1  5 0.74451223D+01 0.00000000D+00  -5  6  0 0.00000000D+00 0.00000000D+00 0.00000000D+00 0.00000000D+00 0.00000000D+00
  <mgrwgt>
 0.3955832956D+03   49    2    0
 0.580943388548383D+02 0.000000000000000D+00 0.000000000000000D+00 0.580943388548383D+02
 0.580943388548383D+02 0.000000000000000D+00 0.000000000000000D+00 -.580943388548383D+02
 0.410445172756376D+02 -.488103890719568D+01 -.243577350796102D+02 -.326730561681653D+02
 0.525356942723385D+02 0.250111494331841D+02 0.344703619587658D+02 0.307609447699388D+02
 0.226084661617005D+02 -.201301105259884D+02 -.101126268791556D+02 0.191211139822645D+01
 0.000000000000000D+00 0.000000000000000D+00 0.000000000000000D+00 0.000000000000000D+00
 0.672346010259287D+02 0.000000000000000D+00 0.000000000000000D+00 0.672346010259287D+02
 0.595132426268698D+02 0.000000000000000D+00 0.000000000000000D+00 -.595132426268698D+02
 0.416743914561103D+02 -.729061937477903D+01 -.248208213603244D+02 -.326730561681653D+02
 0.507835147259386D+02 0.220014875342855D+02 0.338919487645528D+02 0.307609447699388D+02
 0.239354164682934D+02 -.214859218173876D+02 -.103731940678140D+02 0.191211139822645D+01
 0.103545210024562D+02 0.677505365788112D+01 0.130206666358558D+01 0.772135839905891D+01
0.137832800971D-03 0.000000000000D+00 0.000000000000D+00 0.831552074985D-03 0.000000000000D+00  6 21 2 -11 11 2 21 2 0.62934294D-03 0.12692686D+00 0.20230988D+04 0.50748657D+03 0.33691139D+04 0.13722587D+01  1  2  2  1  6  1       21 0.631573013896D+02
-.964015625590D-05 0.669174580000D-05 0.303646225360D-06 0.831552074985D-03 0.000000000000D+00  6 21 2 -11 11 2 21 4 0.62934294D-03 0.12692686D+00 0.20230988D+04 0.50748657D+03 0.33691139D+04 0.13722587D+01  1  2  3  1  6  1       21 -.161695850806D+02
0.122763615472D-04 0.000000000000D+00 0.000000000000D+00 0.831552074985D-03 0.000000000000D+00  6 21 2 -11 11 2 21 4 0.62934294D-03 0.12692686D+00 0.20230988D+04 0.50748657D+03 0.33691139D+04 0.13722587D+01  1  2 15  1  6  1       21 0.105928458069D+02
0.371171413965D-03 0.000000000000D+00 0.000000000000D+00 0.832602030878D-03 0.000000000000D+00  6 21 2 -11 11 2 21 4 0.74615007D-03 0.12692686D+00 0.23539194D+04 0.50094356D+03 0.33586354D+04 0.13731248D+01  1  2 12  1  6  1       21 0.251575642366D+03
0.371171413965D-03 0.000000000000D+00 0.000000000000D+00 0.832602030878D-03 0.000000000000D+00  6 21 2 -11 11 2 21 4 0.74615007D-03 0.12692686D+00 0.23539194D+04 0.50094356D+03 0.33586354D+04 0.13731248D+01  1  2 12  1  6  1       21 0.251575642366D+03
-.448414762931D-03 0.000000000000D+00 0.000000000000D+00 0.831552074985D-03 0.000000000000D+00  6 21 2 -11 11 2 21 4 0.62934294D-03 0.12692686D+00 0.20230988D+04 0.50748657D+03 0.33691139D+04 0.13722587D+01  1  2  4  1  6  1       21 -.386921517666D+03
-.124934636516D-02 0.000000000000D+00 -.213706539074D-03 0.831552074985D-03 0.000000000000D+00  6 21 2 -11 11 2 21 4 0.74643682D-03 0.12692686D+00 0.20230988D+04 0.50748657D+03 0.33691139D+04 0.13722587D+01  1  2  5  1  6  1       21 -.918087826576D+03
0.121819971416D-02 0.000000000000D+00 0.201757326180D-03 0.831552074985D-03 0.000000000000D+00  6 21 2 -11 11 2 21 4 0.62934294D-03 0.12692686D+00 0.20230988D+04 0.50748657D+03 0.33691139D+04 0.13722587D+01  1  2  6  1  6  1       21 0.113993116505D+04
0.836607504233D-05 0.000000000000D+00 0.000000000000D+00 0.831552074985D-03 0.312990046507D-03  6 21 2 -11 11 2 21 4 0.72836050D-03 0.13002694D+00 0.23539194D+04 0.50094356D+03 0.33586354D+04 0.13731248D+01  1  2 11  1  6  1       21 0.570593916976D+01
0.175598270386D-04 0.000000000000D+00 0.000000000000D+00 0.832602030878D-03 0.000000000000D+00  6 -1 2 -11 11 2 -1 4 0.74615007D-03 0.12692686D+00 0.23539194D+04 0.50094356D+03 0.33586354D+04 0.13731248D+01  1  2 12  4  6  1       21 0.603815227238D+00
0.175598270386D-04 0.000000000000D+00 0.000000000000D+00 0.832602030878D-03 0.000000000000D+00  6 -3 2 -11 11 2 -3 4 0.74615007D-03 0.12692686D+00 0.23539194D+04 0.50094356D+03 0.33586354D+04 0.13731248D+01  1  2 12  4  6  1       21 0.568963263283D+00
0.175598270386D-04 0.000000000000D+00 0.000000000000D+00 0.832602030878D-03 0.000000000000D+00  6 -5 2 -11 11 2 -5 4 0.74615007D-03 0.12692686D+00 0.23539194D+04 0.50094356D+03 0.33586354D+04 0.13731248D+01  1  2 12  4  6  1       21 0.322773464635D+00
0.175598270386D-04 0.000000000000D+00 0.000000000000D+00 0.832602030878D-03 0.000000000000D+00  6 -1 2 -11 11 2 -1 4 0.74615007D-03 0.12692686D+00 0.23539194D+04 0.50094356D+03 0.33586354D+04 0.13731248D+01  1  2 12  4  6  1       21 0.603815227238D+00
0.175598270386D-04 0.000000000000D+00 0.000000000000D+00 0.832602030878D-03 0.000000000000D+00  6 -3 2 -11 11 2 -3 4 0.74615007D-03 0.12692686D+00 0.23539194D+04 0.50094356D+03 0.33586354D+04 0.13731248D+01  1  2 12  4  6  1       21 0.568963263283D+00
0.175598270386D-04 0.000000000000D+00 0.000000000000D+00 0.832602030878D-03 0.000000000000D+00  6 -5 2 -11 11 2 -5 4 0.74615007D-03 0.12692686D+00 0.23539194D+04 0.50094356D+03 0.33586354D+04 0.13731248D+01  1  2 12  4  6  1       21 0.322773464635D+00
-.504299424892D-04 0.000000000000D+00 -.101374139722D-04 0.831552074985D-03 0.000000000000D+00  6 -1 2 -11 11 2 -1 4 0.74643682D-03 0.12692686D+00 0.20230988D+04 0.50748657D+03 0.33691139D+04 0.13722587D+01  1  2  5  4  6  1       21 -.190651389438D+01
-.504299424892D-04 0.000000000000D+00 -.101374139722D-04 0.831552074985D-03 0.000000000000D+00  6 -3 2 -11 11 2 -3 4 0.74643682D-03 0.12692686D+00 0.20230988D+04 0.50748657D+03 0.33691139D+04 0.13722587D+01  1  2  5  4  6  1       21 -.179649122023D+01
-.504299424892D-04 0.000000000000D+00 -.101374139722D-04 0.831552074985D-03 0.000000000000D+00  6 -5 2 -11 11 2 -5 4 0.74643682D-03 0.12692686D+00 0.20230988D+04 0.50748657D+03 0.33691139D+04 0.13722587D+01  1  2  5  4  6  1       21 -.101940143185D+01
0.471780032582D-06 0.000000000000D+00 0.000000000000D+00 0.831552074985D-03 0.129932867005D-04  6 -1 2 -11 11 2 -1 4 0.72836050D-03 0.13002694D+00 0.23539194D+04 0.50094356D+03 0.33586354D+04 0.13731248D+01  1  2 11  4  6  1       21 0.162903232721D-01
0.471780032582D-06 0.000000000000D+00 0.000000000000D+00 0.831552074985D-03 0.129932867005D-04  6 -3 2 -11 11 2 -3 4 0.72836050D-03 0.13002694D+00 0.23539194D+04 0.50094356D+03 0.33586354D+04 0.13731248D+01  1  2 11  4  6  1       21 0.153569885873D-01
0.471780032582D-06 0.000000000000D+00 0.000000000000D+00 0.831552074985D-03 0.129932867005D-04  6 -5 2 -11 11 2 -5 4 0.72836050D-03 0.13002694D+00 0.23539194D+04 0.50094356D+03 0.33586354D+04 0.13731248D+01  1  2 11  4  6  1       21 0.872782680773D-02
0.175598270386D-04 0.000000000000D+00 0.000000000000D+00 0.832602030878D-03 0.000000000000D+00  6 1 2 -11 11 2 1 4 0.74615007D-03 0.12692686D+00 0.23539194D+04 0.50094356D+03 0.33586354D+04 0.13731248D+01  1  2 12  5  6  1       21 0.619694748917D+00
0.175598270386D-04 0.000000000000D+00 0.000000000000D+00 0.832602030878D-03 0.000000000000D+00  6 3 2 -11 11 2 3 4 0.74615007D-03 0.12692686D+00 0.23539194D+04 0.50094356D+03 0.33586354D+04 0.13731248D+01  1  2 12  5  6  1       21 0.567924997160D+00
0.175598270386D-04 0.000000000000D+00 0.000000000000D+00 0.832602030878D-03 0.000000000000D+00  6 5 2 -11 11 2 5 4 0.74615007D-03 0.12692686D+00 0.23539194D+04 0.50094356D+03 0.33586354D+04 0.13731248D+01  1  2 12  5  6  1       21 0.322798351625D+00
0.175598270386D-04 0.000000000000D+00 0.000000000000D+00 0.832602030878D-03 0.000000000000D+00  6 1 2 -11 11 2 1 4 0.74615007D-03 0.12692686D+00 0.23539194D+04 0.50094356D+03 0.33586354D+04 0.13731248D+01  1  2 12  5  6  1       21 0.619694748917D+00
0.175598270386D-04 0.000000000000D+00 0.000000000000D+00 0.832602030878D-03 0.000000000000D+00  6 3 2 -11 11 2 3 4 0.74615007D-03 0.12692686D+00 0.23539194D+04 0.50094356D+03 0.33586354D+04 0.13731248D+01  1  2 12  5  6  1       21 0.567924997160D+00
0.175598270386D-04 0.000000000000D+00 0.000000000000D+00 0.832602030878D-03 0.000000000000D+00  6 5 2 -11 11 2 5 4 0.74615007D-03 0.12692686D+00 0.23539194D+04 0.50094356D+03 0.33586354D+04 0.13731248D+01  1  2 12  5  6  1       21 0.322798351625D+00
-.504299424892D-04 0.000000000000D+00 -.101374139722D-04 0.831552074985D-03 0.000000000000D+00  6 1 2 -11 11 2 1 4 0.74643682D-03 0.12692686D+00 0.20230988D+04 0.50748657D+03 0.33691139D+04 0.13722587D+01  1  2  5  5  6  1       21 -.195665776041D+01
-.504299424892D-04 0.000000000000D+00 -.101374139722D-04 0.831552074985D-03 0.000000000000D+00  6 3 2 -11 11 2 3 4 0.74643682D-03 0.12692686D+00 0.20230988D+04 0.50748657D+03 0.33691139D+04 0.13722587D+01  1  2  5  5  6  1       21 -.179321384423D+01
-.504299424892D-04 0.000000000000D+00 -.101374139722D-04 0.831552074985D-03 0.000000000000D+00  6 5 2 -11 11 2 5 4 0.74643682D-03 0.12692686D+00 0.20230988D+04 0.50748657D+03 0.33691139D+04 0.13722587D+01  1  2  5  5  6  1       21 -.101947997673D+01
0.563687820777D-06 0.000000000000D+00 0.000000000000D+00 0.831552074985D-03 0.155245176970D-04  6 1 2 -11 11 2 1 4 0.72836050D-03 0.13002694D+00 0.23539194D+04 0.50094356D+03 0.33586354D+04 0.13731248D+01  1  2 11  5  6  1       21 0.199664511957D-01
0.563687820777D-06 0.000000000000D+00 0.000000000000D+00 0.831552074985D-03 0.155245176970D-04  6 3 2 -11 11 2 3 4 0.72836050D-03 0.13002694D+00 0.23539194D+04 0.50094356D+03 0.33586354D+04 0.13731248D+01  1  2 11  5  6  1       21 0.183154020879D-01
0.563687820777D-06 0.000000000000D+00 0.000000000000D+00 0.831552074985D-03 0.155245176970D-04  6 5 2 -11 11 2 5 4 0.72836050D-03 0.13002694D+00 0.23539194D+04 0.50094356D+03 0.33586354D+04 0.13731248D+01  1  2 11  5  6  1       21 0.104289134813D-01
0.175598270386D-04 0.000000000000D+00 0.000000000000D+00 0.832602030878D-03 0.000000000000D+00  6 -2 2 -11 11 2 -2 4 0.74615007D-03 0.12692686D+00 0.23539194D+04 0.50094356D+03 0.33586354D+04 0.13731248D+01  1  2 12  6  6  1       21 0.606950106488D+00
0.175598270386D-04 0.000000000000D+00 0.000000000000D+00 0.832602030878D-03 0.000000000000D+00  6 -2 2 -11 11 2 -2 4 0.74615007D-03 0.12692686D+00 0.23539194D+04 0.50094356D+03 0.33586354D+04 0.13731248D+01  1  2 12  6  6  1       21 0.606950106488D+00
-.504299424892D-04 0.000000000000D+00 -.101374139722D-04 0.831552074985D-03 0.000000000000D+00  6 -2 2 -11 11 2 -2 4 0.74643682D-03 0.12692686D+00 0.20230988D+04 0.50748657D+03 0.33691139D+04 0.13722587D+01  1  2  5  6  6  1       21 -.191640601344D+01
0.161664810388D-05 0.000000000000D+00 0.000000000000D+00 0.831552074985D-03 0.575224082226D-04  6 -2 2 -11 11 2 -2 4 0.72836050D-03 0.13002694D+00 0.23539194D+04 0.50094356D+03 0.33586354D+04 0.13731248D+01  1  2 11  6  6  1       21 0.561140948134D-01
0.175598270386D-04 0.000000000000D+00 0.000000000000D+00 0.832602030878D-03 0.000000000000D+00  6 2 2 -11 11 2 2 4 0.74615007D-03 0.12692686D+00 0.23539194D+04 0.50094356D+03 0.33586354D+04 0.13731248D+01  1  2 12  7  6  1       21 0.632329430471D+00
0.175598270386D-04 0.000000000000D+00 0.000000000000D+00 0.832602030878D-03 0.000000000000D+00  6 2 2 -11 11 2 2 4 0.74615007D-03 0.12692686D+00 0.23539194D+04 0.50094356D+03 0.33586354D+04 0.13731248D+01  1  2 12  7  6  1       21 0.632329430471D+00
-.504299424892D-04 0.000000000000D+00 -.101374139722D-04 0.831552074985D-03 0.000000000000D+00  6 2 2 -11 11 2 2 4 0.74643682D-03 0.12692686D+00 0.20230988D+04 0.50748657D+03 0.33691139D+04 0.13722587D+01  1  2  5  7  6  1       21 -.199655145221D+01
0.746100943164D-06 0.000000000000D+00 0.000000000000D+00 0.831552074985D-03 0.113431325922D-04  6 2 2 -11 11 2 2 4 0.72836050D-03 0.13002694D+00 0.23539194D+04 0.50094356D+03 0.33586354D+04 0.13731248D+01  1  2 11  7  6  1       21 0.269591550557D-01
0.175598270386D-04 0.000000000000D+00 0.000000000000D+00 0.832602030878D-03 0.000000000000D+00  6 -4 2 -11 11 2 -4 4 0.74615007D-03 0.12692686D+00 0.23539194D+04 0.50094356D+03 0.33586354D+04 0.13731248D+01  1  2 12  8  6  1       21 0.464064664608D+00
0.175598270386D-04 0.000000000000D+00 0.000000000000D+00 0.832602030878D-03 0.000000000000D+00  6 -4 2 -11 11 2 -4 4 0.74615007D-03 0.12692686D+00 0.23539194D+04 0.50094356D+03 0.33586354D+04 0.13731248D+01  1  2 12  8  6  1       21 0.464064664608D+00
-.504299424892D-04 0.000000000000D+00 -.101374139722D-04 0.831552074985D-03 0.000000000000D+00  6 -4 2 -11 11 2 -4 4 0.74643682D-03 0.12692686D+00 0.20230988D+04 0.50748657D+03 0.33691139D+04 0.13722587D+01  1  2  5  8  6  1       21 -.146536284645D+01
0.781713749106D-06 0.000000000000D+00 0.000000000000D+00 0.831552074985D-03 0.215291664725D-04  6 -4 2 -11 11 2 -4 4 0.72836050D-03 0.13002694D+00 0.23539194D+04 0.50094356D+03 0.33586354D+04 0.13731248D+01  1  2 11  8  6  1       21 0.207779089073D-01
0.175598270386D-04 0.000000000000D+00 0.000000000000D+00 0.832602030878D-03 0.000000000000D+00  6 4 2 -11 11 2 4 4 0.74615007D-03 0.12692686D+00 0.23539194D+04 0.50094356D+03 0.33586354D+04 0.13731248D+01  1  2 12  9  6  1       21 0.464139419343D+00
0.175598270386D-04 0.000000000000D+00 0.000000000000D+00 0.832602030878D-03 0.000000000000D+00  6 4 2 -11 11 2 4 4 0.74615007D-03 0.12692686D+00 0.23539194D+04 0.50094356D+03 0.33586354D+04 0.13731248D+01  1  2 12  9  6  1       21 0.464139419343D+00
-.504299424892D-04 0.000000000000D+00 -.101374139722D-04 0.831552074985D-03 0.000000000000D+00  6 4 2 -11 11 2 4 4 0.74643682D-03 0.12692686D+00 0.20230988D+04 0.50748657D+03 0.33691139D+04 0.13722587D+01  1  2  5  9  6  1       21 -.146559873365D+01
0.734325875161D-06 0.000000000000D+00 0.000000000000D+00 0.831552074985D-03 0.202240577570D-04  6 4 2 -11 11 2 4 4 0.72836050D-03 0.13002694D+00 0.23539194D+04 0.50094356D+03 0.33586354D+04 0.13731248D+01  1  2 11  9  6  1       21 0.195215212084D-01
  </mgrwgt>
  </event>
  <event npLO=' -1 ' npNLO=' 1 '>
  6     66 0.13416416E+02 0.29389836E+02 0.75467711E-02 0.14225327E+00
       21 -1    0    0  501  502 0.00000000E+00 0.00000000E+00 0.15934981E+01 0.15934981E+01 0.00000000E+00 0.0000E+00 0.9000E+01
        2 -1    0    0  502    0 0.00000000E+00 0.00000000E+00 -.24994100E+04 0.24994100E+04 0.00000000E+00 0.0000E+00 0.9000E+01
       23  2    1    2    0    0 0.58391289E+01 0.28803942E+02 -.20331500E+04 0.20354085E+04 0.91241422E+02 0.0000E+00 0.0000E+00
      -13  1    3    3    0    0 0.28659642E+02 -.24300713E+02 -.90284483E+03 0.90362641E+03 0.00000000E+00 0.0000E+00 0.9000E+01
       13  1    3    3    0    0 -.22820513E+02 0.53104654E+02 -.11303052E+04 0.11317821E+04 0.00000000E+00 0.0000E+00 0.9000E+01
        2  1    1    2  501    0 -.58391289E+01 -.28803942E+02 -.46466651E+03 0.46559503E+03 0.00000000E+00 0.0000E+00 0.9000E+01
#aMCatNLO 1  0  0  1  5 0.15673487D+02 0.00000000D+00  -5  6  0 0.00000000D+00 0.00000000D+00 0.00000000D+00 0.00000000D+00 0.00000000D+00
  <mgrwgt>
 0.4037645116D+03   38    2    0
 0.631094686853348D+02 0.000000000000000D+00 0.000000000000000D+00 0.631094686853348D+02
 0.631094686853348D+02 0.000000000000000D+00 0.000000000000000D+00 -.631094686853348D+02
 0.382834348855515D+02 0.286596423510316D+02 -.243007126183020D+02 -.732950565794955D+01
 0.578044334837521D+02 -.228205134506262D+02 0.531046543040321D+02 0.687304500607958D+00
 0.301310690013660D+02 -.583912890040544D+01 -.288039416857301D+02 0.664220115734159D+01
 0.000000000000000D+00 0.000000000000000D+00 -.000000000000000D+00 0.000000000000000D+00
 0.728138493394611D+02 0.000000000000000D+00 0.000000000000000D+00 0.728138493394611D+02
 0.677983225781430D+02 0.000000000000000D+00 0.000000000000000D+00 -.677983225781430D+02
 0.346725744307008D+02 0.257548576557852D+02 -.220261905828679D+02 -.732950565794955D+01
 0.632424528479170D+02 -.276400635619717D+02 0.568784875065663D+02 0.687304500607958D+00
 0.289511147029592D+02 -.819151939701433D+01 -.269619586880785D+02 0.664220115734159D+01
 0.137460299360271D+02 0.100767253032008D+02 -.789033823561998D+01 0.501552676131815D+01
0.416902578827D-03 0.000000000000D+00 0.000000000000D+00 0.651637478887D-03 0.000000000000D+00  6 21 2 -13 13 2 21 2 0.24515355D-03 0.38452462D+00 0.38916036D+04 0.86376248D+03 0.39217563D+04 0.13381611D+01  1  2  2  1  6  1       21 0.924491036381D+02
-.237587339285D-04 0.202405092345D-04 0.918438089568D-06 0.651637478887D-03 0.000000000000D+00  6 21 2 -13 13 2 21 4 0.24515355D-03 0.38452462D+00 0.38916036D+04 0.86376248D+03 0.39217563D+04 0.13381611D+01  1  2  3  1  6  1       21 -.215297224270D+02
0.306545579176D-04 0.000000000000D+00 0.000000000000D+00 0.651637478887D-03 0.000000000000D+00  6 21 2 -13 13 2 21 4 0.24515355D-03 0.38452462D+00 0.38916036D+04 0.86376248D+03 0.39217563D+04 0.13381611D+01  1  2 15  1  6  1       21 0.121725046860D+02
0.373202747120D-03 0.000000000000D+00 0.000000000000D+00 0.650521106668D-03 0.000000000000D+00  6 21 2 -13 13 2 21 4 0.30386598D-03 0.38452462D+00 0.47682445D+04 0.87999586D+03 0.39443034D+04 0.13370143D+01  1  2 12  1  6  1       21 0.109398019108D+03
0.373202747120D-03 0.000000000000D+00 0.000000000000D+00 0.650521106668D-03 0.000000000000D+00  6 21 2 -13 13 2 21 4 0.30386598D-03 0.38452462D+00 0.47682445D+04 0.87999586D+03 0.39443034D+04 0.13370143D+01  1  2 12  1  6  1       21 0.109398019108D+03
-.169002096144D-03 0.000000000000D+00 0.000000000000D+00 0.651637478887D-03 0.000000000000D+00  6 21 2 -13 13 2 21 4 0.24515355D-03 0.38452462D+00 0.38916036D+04 0.86376248D+03 0.39217563D+04 0.13381611D+01  1  2  4  1  6  1       21 -.671084154207D+02
-.185318917168D-02 0.000000000000D+00 -.507294969135D-03 0.651637478887D-03 0.000000000000D+00  6 21 2 -13 13 2 21 4 0.31055188D-03 0.38452462D+00 0.38916036D+04 0.86376248D+03 0.39217563D+04 0.13381611D+01  1  2  5  1  6  1       21 -.529650091179D+03
0.177352267717D-02 0.000000000000D+00 0.454764852583D-03 0.651637478887D-03 0.000000000000D+00  6 21 2 -13 13 2 21 4 0.24515355D-03 0.38452462D+00 0.38916036D+04 0.86376248D+03 0.39217563D+04 0.13381611D+01  1  2  6  1  6  1       21 0.705635311442D+03
0.233289536619D-04 0.000000000000D+00 0.000000000000D+00 0.650521106668D-03 0.000000000000D+00  6 -1 2 -13 13 2 -1 4 0.30386598D-03 0.38452462D+00 0.47682445D+04 0.87999586D+03 0.39443034D+04 0.13370143D+01  1  2 12  4  6  1       21 0.322230072549D+00
0.233289536619D-04 0.000000000000D+00 0.000000000000D+00 0.650521106668D-03 0.000000000000D+00  6 -3 2 -13 13 2 -3 4 0.30386598D-03 0.38452462D+00 0.47682445D+04 0.87999586D+03 0.39443034D+04 0.13370143D+01  1  2 12  4  6  1       21 0.308771589533D+00
0.233289536619D-04 0.000000000000D+00 0.000000000000D+00 0.650521106668D-03 0.000000000000D+00  6 -5 2 -13 13 2 -5 4 0.30386598D-03 0.38452462D+00 0.47682445D+04 0.87999586D+03 0.39443034D+04 0.13370143D+01  1  2 12  4  6  1       21 0.188525663503D+00
0.233289536619D-04 0.000000000000D+00 0.000000000000D+00 0.650521106668D-03 0.000000000000D+00  6 -1 2 -13 13 2 -1 4 0.30386598D-03 0.38452462D+00 0.47682445D+04 0.87999586D+03 0.39443034D+04 0.13370143D+01  1  2 12  4  6  1       21 0.322230072549D+00
0.233289536619D-04 0.000000000000D+00 0.000000000000D+00 0.650521106668D-03 0.000000000000D+00  6 -3 2 -13 13 2 -3 4 0.30386598D-03 0.38452462D+00 0.47682445D+04 0.87999586D+03 0.39443034D+04 0.13370143D+01  1  2 12  4  6  1       21 0.308771589533D+00
0.233289536619D-04 0.000000000000D+00 0.000000000000D+00 0.650521106668D-03 0.000000000000D+00  6 -5 2 -13 13 2 -5 4 0.30386598D-03 0.38452462D+00 0.47682445D+04 0.87999586D+03 0.39443034D+04 0.13370143D+01  1  2 12  4  6  1       21 0.188525663503D+00
-.107046847564D-03 0.000000000000D+00 -.356651160013D-04 0.651637478887D-03 0.000000000000D+00  6 -1 2 -13 13 2 -1 4 0.31055188D-03 0.38452462D+00 0.38916036D+04 0.86376248D+03 0.39217563D+04 0.13381611D+01  1  2  5  4  6  1       21 -.144471313929D+01
-.107046847564D-03 0.000000000000D+00 -.356651160013D-04 0.651637478887D-03 0.000000000000D+00  6 -3 2 -13 13 2 -3 4 0.31055188D-03 0.38452462D+00 0.38916036D+04 0.86376248D+03 0.39217563D+04 0.13381611D+01  1  2  5  4  6  1       21 -.138383245892D+01
-.107046847564D-03 0.000000000000D+00 -.356651160013D-04 0.651637478887D-03 0.000000000000D+00  6 -5 2 -13 13 2 -5 4 0.31055188D-03 0.38452462D+00 0.38916036D+04 0.86376248D+03 0.39217563D+04 0.13381611D+01  1  2  5  4  6  1       21 -.843441977842D+00
0.233289536619D-04 0.000000000000D+00 0.000000000000D+00 0.650521106668D-03 0.000000000000D+00  6 1 2 -13 13 2 1 4 0.30386598D-03 0.38452462D+00 0.47682445D+04 0.87999586D+03 0.39443034D+04 0.13370143D+01  1  2 12  5  6  1       21 0.326545220956D+00
0.233289536619D-04 0.000000000000D+00 0.000000000000D+00 0.650521106668D-03 0.000000000000D+00  6 3 2 -13 13 2 3 4 0.30386598D-03 0.38452462D+00 0.47682445D+04 0.87999586D+03 0.39443034D+04 0.13370143D+01  1  2 12  5  6  1       21 0.308359365152D+00
0.233289536619D-04 0.000000000000D+00 0.000000000000D+00 0.650521106668D-03 0.000000000000D+00  6 5 2 -13 13 2 5 4 0.30386598D-03 0.38452462D+00 0.47682445D+04 0.87999586D+03 0.39443034D+04 0.13370143D+01  1  2 12  5  6  1       21 0.188540764067D+00
0.233289536619D-04 0.000000000000D+00 0.000000000000D+00 0.650521106668D-03 0.000000000000D+00  6 1 2 -13 13 2 1 4 0.30386598D-03 0.38452462D+00 0.47682445D+04 0.87999586D+03 0.39443034D+04 0.13370143D+01  1  2 12  5  6  1       21 0.326545220956D+00
0.233289536619D-04 0.000000000000D+00 0.000000000000D+00 0.650521106668D-03 0.000000000000D+00  6 3 2 -13 13 2 3 4 0.30386598D-03 0.38452462D+00 0.47682445D+04 0.87999586D+03 0.39443034D+04 0.13370143D+01  1  2 12  5  6  1       21 0.308359365152D+00
0.233289536619D-04 0.000000000000D+00 0.000000000000D+00 0.650521106668D-03 0.000000000000D+00  6 5 2 -13 13 2 5 4 0.30386598D-03 0.38452462D+00 0.47682445D+04 0.87999586D+03 0.39443034D+04 0.13370143D+01  1  2 12  5  6  1       21 0.188540764067D+00
-.107046847564D-03 0.000000000000D+00 -.356651160013D-04 0.651637478887D-03 0.000000000000D+00  6 1 2 -13 13 2 1 4 0.31055188D-03 0.38452462D+00 0.38916036D+04 0.86376248D+03 0.39217563D+04 0.13381611D+01  1  2  5  5  6  1       21 -.146437679420D+01
-.107046847564D-03 0.000000000000D+00 -.356651160013D-04 0.651637478887D-03 0.000000000000D+00  6 3 2 -13 13 2 3 4 0.31055188D-03 0.38452462D+00 0.38916036D+04 0.86376248D+03 0.39217563D+04 0.13381611D+01  1  2  5  5  6  1       21 -.138197060888D+01
-.107046847564D-03 0.000000000000D+00 -.356651160013D-04 0.651637478887D-03 0.000000000000D+00  6 5 2 -13 13 2 5 4 0.31055188D-03 0.38452462D+00 0.38916036D+04 0.86376248D+03 0.39217563D+04 0.13381611D+01  1  2  5  5  6  1       21 -.843509847911D+00
0.233289536619D-04 0.000000000000D+00 0.000000000000D+00 0.650521106668D-03 0.000000000000D+00  6 -2 2 -13 13 2 -2 4 0.30386598D-03 0.38452462D+00 0.47682445D+04 0.87999586D+03 0.39443034D+04 0.13370143D+01  1  2 12  6  6  1       21 0.323995055869D+00
0.233289536619D-04 0.000000000000D+00 0.000000000000D+00 0.650521106668D-03 0.000000000000D+00  6 -2 2 -13 13 2 -2 4 0.30386598D-03 0.38452462D+00 0.47682445D+04 0.87999586D+03 0.39443034D+04 0.13370143D+01  1  2 12  6  6  1       21 0.323995055869D+00
-.107046847564D-03 0.000000000000D+00 -.356651160013D-04 0.651637478887D-03 0.000000000000D+00  6 -2 2 -13 13 2 -2 4 0.31055188D-03 0.38452462D+00 0.38916036D+04 0.86376248D+03 0.39217563D+04 0.13381611D+01  1  2  5  6  6  1       21 -.145265575142D+01
0.233289536619D-04 0.000000000000D+00 0.000000000000D+00 0.650521106668D-03 0.000000000000D+00  6 2 2 -13 13 2 2 4 0.30386598D-03 0.38452462D+00 0.47682445D+04 0.87999586D+03 0.39443034D+04 0.13370143D+01  1  2 12  7  6  1       21 0.330580155157D+00
0.233289536619D-04 0.000000000000D+00 0.000000000000D+00 0.650521106668D-03 0.000000000000D+00  6 2 2 -13 13 2 2 4 0.30386598D-03 0.38452462D+00 0.47682445D+04 0.87999586D+03 0.39443034D+04 0.13370143D+01  1  2 12  7  6  1       21 0.330580155157D+00
-.107046847564D-03 0.000000000000D+00 -.356651160013D-04 0.651637478887D-03 0.000000000000D+00  6 2 2 -13 13 2 2 4 0.31055188D-03 0.38452462D+00 0.38916036D+04 0.86376248D+03 0.39217563D+04 0.13381611D+01  1  2  5  7  6  1       21 -.148269366765D+01
0.233289536619D-04 0.000000000000D+00 0.000000000000D+00 0.650521106668D-03 0.000000000000D+00  6 -4 2 -13 13 2 -4 4 0.30386598D-03 0.38452462D+00 0.47682445D+04 0.87999586D+03 0.39443034D+04 0.13370143D+01  1  2 12  8  6  1       21 0.261912633373D+00
0.233289536619D-04 0.000000000000D+00 0.000000000000D+00 0.650521106668D-03 0.000000000000D+00  6 -4 2 -13 13 2 -4 4 0.30386598D-03 0.38452462D+00 0.47682445D+04 0.87999586D+03 0.39443034D+04 0.13370143D+01  1  2 12  8  6  1       21 0.261912633373D+00
-.107046847564D-03 0.000000000000D+00 -.356651160013D-04 0.651637478887D-03 0.000000000000D+00  6 -4 2 -13 13 2 -4 4 0.31055188D-03 0.38452462D+00 0.38916036D+04 0.86376248D+03 0.39217563D+04 0.13381611D+01  1  2  5  8  6  1       21 -.117282871076D+01
0.233289536619D-04 0.000000000000D+00 0.000000000000D+00 0.650521106668D-03 0.000000000000D+00  6 4 2 -13 13 2 4 4 0.30386598D-03 0.38452462D+00 0.47682445D+04 0.87999586D+03 0.39443034D+04 0.13370143D+01  1  2 12  9  6  1       21 0.261957492813D+00
0.233289536619D-04 0.000000000000D+00 0.000000000000D+00 0.650521106668D-03 0.000000000000D+00  6 4 2 -13 13 2 4 4 0.30386598D-03 0.38452462D+00 0.47682445D+04 0.87999586D+03 0.39443034D+04 0.13370143D+01  1  2 12  9  6  1       21 0.261957492813D+00
-.107046847564D-03 0.000000000000D+00 -.356651160013D-04 0.651637478887D-03 0.000000000000D+00  6 4 2 -13 13 2 4 4 0.31055188D-03 0.38452462D+00 0.38916036D+04 0.86376248D+03 0.39217563D+04 0.13381611D+01  1  2  5  9  6  1       21 -.117303038155D+01
  </mgrwgt>
  </event>
  <event npLO=' -1 ' npNLO=' 1 '>
  6     66 0.13416416E+02 0.12010663E+02 0.75467711E-02 0.16930426E+00
       21 -1    0    0  501  502 0.00000000E+00 0.00000000E+00 0.68675517E+02 0.68675517E+02 0.00000000E+00 0.0000E+00 0.9000E+01
        4 -1    0    0  502    0 0.00000000E+00 0.00000000E+00 -.71507275E+02 0.71507275E+02 0.00000000E+00 0.0000E+00 0.9000E+01
       23  2    1    2    0    0 -.11835903E+02 -.20414288E+01 -.42184559E+02 0.99037939E+02 0.88795947E+02 0.0000E+00 0.0000E+00
      -13  1    3    3    0    0 -.20795787E+02 0.35748283E+02 -.43704946E+02 0.60170814E+02 0.00000000E+00 0.0000E+00 0.9000E+01
       13  1    3    3    0    0 0.89598835E+01 -.37789712E+02 0.15203874E+01 0.38867125E+02 0.00000000E+00 0.0000E+00 0.9000E+01
        4  1    1    2  501    0 0.11835903E+02 0.20414288E+01 0.39352800E+02 0.41144853E+02 0.00000000E+00 0.0000E+00 0.9000E+01
#aMCatNLO 1  0  0  1  5 0.18147314D+01 0.00000000D+00  -5  6  0 0.00000000D+00 0.00000000D+00 0.00000000D+00 0.00000000D+00 0.00000000D+00
  <mgrwgt>
 0.1891626193D+03   49    2    0
 0.700770936497448D+02 0.000000000000000D+00 0.000000000000000D+00 0.700770936497448D+02
 0.700770936497448D+02 0.000000000000000D+00 0.000000000000000D+00 -.700770936497448D+02
 0.593000532500301D+02 -.207957867474636D+02 0.357482831242110D+02 -.424981390496298D+02
 0.389057764051011D+02 0.895988348172015D+01 -.377897119045497D+02 0.230599216149042D+01
 0.419483576443584D+02 0.118359032657434D+02 0.204142878033863D+01 0.401921468881394D+02
 0.000000000000000D+00 0.000000000000000D+00 0.000000000000000D+00 0.000000000000000D+00
 0.727488552708900D+02 0.000000000000000D+00 0.000000000000000D+00 0.727488552708900D+02
 0.703610518811303D+02 0.000000000000000D+00 0.000000000000000D+00 -.703610518811303D+02
 0.594374197421770D+02 -.215009957691947D+02 0.355587151604094D+02 -.424981390496298D+02
 0.389229553859441D+02 0.849764083476288D+01 -.379139678267879D+02 0.230599216149042D+01
 0.418044147735184D+02 0.113384763859583D+02 0.190771494821894D+01 0.401921468881394D+02
 0.294511725038080D+01 0.166487854847345D+01 0.447537718159577D+00 0.238780338975972D+01
0.535704245858D-03 0.000000000000D+00 0.000000000000D+00 0.174297041073D-02 0.000000000000D+00  6 21 4 -13 13 4 21 2 0.10565464D-01 0.11001119D-01 0.21254441D+04 0.14425604D+03 0.25814132D+04 0.14651271D+01  1  2  2  1  6  1       21 0.214957299931D+02
0.984040762578D-04 0.260082985473D-04 0.118015864887D-05 0.174297041073D-02 0.000000000000D+00  6 21 4 -13 13 4 21 4 0.10565464D-01 0.11001119D-01 0.21254441D+04 0.14425604D+03 0.25814132D+04 0.14651271D+01  1  2  3  1  6  1       21 0.246924864037D+01
0.407672425854D-04 0.000000000000D+00 0.000000000000D+00 0.174297041073D-02 0.000000000000D+00  6 21 4 -13 13 4 21 4 0.10565464D-01 0.11001119D-01 0.21254441D+04 0.14425604D+03 0.25814132D+04 0.14651271D+01  1  2 15  1  6  1       21 0.351147082742D+01
0.165089054025D-05 0.000000000000D+00 0.000000000000D+00 0.169149708249D-02 0.000000000000D+00  6 21 4 -13 13 4 21 4 0.11012728D-01 0.11001119D-01 0.21916523D+04 0.18946845D+03 0.26800637D+04 0.14433310D+01  1  2 12  1  6  1       21 0.125629746395D+00
0.165089054025D-05 0.000000000000D+00 0.000000000000D+00 0.169149708249D-02 0.000000000000D+00  6 21 4 -13 13 4 21 4 0.11012728D-01 0.11001119D-01 0.21916523D+04 0.18946845D+03 0.26800637D+04 0.14433310D+01  1  2 12  1  6  1       21 0.125629746395D+00
-.794651656168D-03 0.000000000000D+00 0.000000000000D+00 0.174297041073D-02 0.000000000000D+00  6 21 4 -13 13 4 21 4 0.10565464D-01 0.11001119D-01 0.21254441D+04 0.14425604D+03 0.25814132D+04 0.14651271D+01  1  2  4  1  6  1       21 -.684470160754D+02
-.303021729694D-01 0.000000000000D+00 -.303784800439D-02 0.174297041073D-02 0.000000000000D+00  6 21 4 -13 13 4 21 4 0.11008277D-01 0.11001119D-01 0.21254441D+04 0.14425604D+03 0.25814132D+04 0.14651271D+01  1  2  5  1  6  1       21 -.248754343057D+04
0.303470231193D-01 0.000000000000D+00 0.302763083493D-02 0.174297041073D-02 0.000000000000D+00  6 21 4 -13 13 4 21 4 0.10565464D-01 0.11001119D-01 0.21254441D+04 0.14425604D+03 0.25814132D+04 0.14651271D+01  1  2  6  1  6  1       21 0.266461417681D+04
0.785608891732D-03 0.000000000000D+00 0.000000000000D+00 0.174297041073D-02 0.864666437889D-02  6 21 4 -13 13 4 21 4 0.10968283D-01 0.11045697D-01 0.21916523D+04 0.18946845D+03 0.26800637D+04 0.14433310D+01  1  2 11  1  6  1       21 0.597760853025D+02
0.507091173030D-07 0.000000000000D+00 0.000000000000D+00 0.172749633357D-02 0.000000000000D+00  6 -1 4 -13 13 4 -1 4 0.11012728D-01 0.11001119D-01 0.21916523D+04 0.15630283D+03 0.26098747D+04 0.14586089D+01  1  2 12  4  6  1       21 0.289424765954D-03
0.507091173030D-07 0.000000000000D+00 0.000000000000D+00 0.172749633357D-02 0.000000000000D+00  6 -3 4 -13 13 4 -3 4 0.11012728D-01 0.11001119D-01 0.21916523D+04 0.15630283D+03 0.26098747D+04 0.14586089D+01  1  2 12  4  6  1       21 0.239000024253D-03
0.507091173030D-07 0.000000000000D+00 0.000000000000D+00 0.172749633357D-02 0.000000000000D+00  6 -5 4 -13 13 4 -5 4 0.11012728D-01 0.11001119D-01 0.21916523D+04 0.15630283D+03 0.26098747D+04 0.14586089D+01  1  2 12  4  6  1       21 0.994985220854D-04
0.507091173030D-07 0.000000000000D+00 0.000000000000D+00 0.172749633357D-02 0.000000000000D+00  6 -1 4 -13 13 4 -1 4 0.11012728D-01 0.11001119D-01 0.21916523D+04 0.15630283D+03 0.26098747D+04 0.14586089D+01  1  2 12  4  6  1       21 0.289424765954D-03
0.507091173030D-07 0.000000000000D+00 0.000000000000D+00 0.172749633357D-02 0.000000000000D+00  6 -3 4 -13 13 4 -3 4 0.11012728D-01 0.11001119D-01 0.21916523D+04 0.15630283D+03 0.26098747D+04 0.14586089D+01  1  2 12  4  6  1       21 0.239000024253D-03
0.507091173030D-07 0.000000000000D+00 0.000000000000D+00 0.172749633357D-02 0.000000000000D+00  6 -5 4 -13 13 4 -5 4 0.11012728D-01 0.11001119D-01 0.21916523D+04 0.15630283D+03 0.26098747D+04 0.14586089D+01  1  2 12  4  6  1       21 0.994985220854D-04
-.256674962307D-03 0.000000000000D+00 -.294275811295D-04 0.174297041073D-02 0.000000000000D+00  6 -1 4 -13 13 4 -1 4 0.11008277D-01 0.11001119D-01 0.21254441D+04 0.14425604D+03 0.25814132D+04 0.14651271D+01  1  2  5  4  6  1       21 -.152347240241D+01
-.256674962307D-03 0.000000000000D+00 -.294275811295D-04 0.174297041073D-02 0.000000000000D+00  6 -3 4 -13 13 4 -3 4 0.11008277D-01 0.11001119D-01 0.21254441D+04 0.14425604D+03 0.25814132D+04 0.14651271D+01  1  2  5  4  6  1       21 -.125800591120D+01
-.256674962307D-03 0.000000000000D+00 -.294275811295D-04 0.174297041073D-02 0.000000000000D+00  6 -5 4 -13 13 4 -5 4 0.11008277D-01 0.11001119D-01 0.21254441D+04 0.14425604D+03 0.25814132D+04 0.14651271D+01  1  2  5  4  6  1       21 -.523167505985D+00
0.115069660450D-03 0.000000000000D+00 0.000000000000D+00 0.174297041073D-02 0.977914334660D-04  6 -1 4 -13 13 4 -1 4 0.10968283D-01 0.11045697D-01 0.21916523D+04 0.15630283D+03 0.26098747D+04 0.14586089D+01  1  2 11  4  6  1       21 0.656157261686D+00
0.115069660450D-03 0.000000000000D+00 0.000000000000D+00 0.174297041073D-02 0.977914334660D-04  6 -3 4 -13 13 4 -3 4 0.10968283D-01 0.11045697D-01 0.21916523D+04 0.15630283D+03 0.26098747D+04 0.14586089D+01  1  2 11  4  6  1       21 0.542110684561D+00
0.115069660450D-03 0.000000000000D+00 0.000000000000D+00 0.174297041073D-02 0.977914334660D-04  6 -5 4 -13 13 4 -5 4 0.10968283D-01 0.11045697D-01 0.21916523D+04 0.15630283D+03 0.26098747D+04 0.14586089D+01  1  2 11  4  6  1       21 0.225806500965D+00
0.507091173030D-07 0.000000000000D+00 0.000000000000D+00 0.172749633357D-02 0.000000000000D+00  6 1 4 -13 13 4 1 4 0.11012728D-01 0.11001119D-01 0.21916523D+04 0.15630283D+03 0.26098747D+04 0.14586089D+01  1  2 12  5  6  1       21 0.354200909709D-03
0.507091173030D-07 0.000000000000D+00 0.000000000000D+00 0.172749633357D-02 0.000000000000D+00  6 3 4 -13 13 4 3 4 0.11012728D-01 0.11001119D-01 0.21916523D+04 0.15630283D+03 0.26098747D+04 0.14586089D+01  1  2 12  5  6  1       21 0.239149398320D-03
0.507091173030D-07 0.000000000000D+00 0.000000000000D+00 0.172749633357D-02 0.000000000000D+00  6 5 4 -13 13 4 5 4 0.11012728D-01 0.11001119D-01 0.21916523D+04 0.15630283D+03 0.26098747D+04 0.14586089D+01  1  2 12  5  6  1       21 0.994009133375D-04
0.507091173030D-07 0.000000000000D+00 0.000000000000D+00 0.172749633357D-02 0.000000000000D+00  6 1 4 -13 13 4 1 4 0.11012728D-01 0.11001119D-01 0.21916523D+04 0.15630283D+03 0.26098747D+04 0.14586089D+01  1  2 12  5  6  1       21 0.354200909709D-03
0.507091173030D-07 0.000000000000D+00 0.000000000000D+00 0.172749633357D-02 0.000000000000D+00  6 3 4 -13 13 4 3 4 0.11012728D-01 0.11001119D-01 0.21916523D+04 0.15630283D+03 0.26098747D+04 0.14586089D+01  1  2 12  5  6  1       21 0.239149398320D-03
0.507091173030D-07 0.000000000000D+00 0.000000000000D+00 0.172749633357D-02 0.000000000000D+00  6 5 4 -13 13 4 5 4 0.11012728D-01 0.11001119D-01 0.21916523D+04 0.15630283D+03 0.26098747D+04 0.14586089D+01  1  2 12  5  6  1       21 0.994009133375D-04
-.256674962307D-03 0.000000000000D+00 -.294275811295D-04 0.174297041073D-02 0.000000000000D+00  6 1 4 -13 13 4 1 4 0.11008277D-01 0.11001119D-01 0.21254441D+04 0.14425604D+03 0.25814132D+04 0.14651271D+01  1  2  5  5  6  1       21 -.186435865652D+01
-.256674962307D-03 0.000000000000D+00 -.294275811295D-04 0.174297041073D-02 0.000000000000D+00  6 3 4 -13 13 4 3 4 0.11008277D-01 0.11001119D-01 0.21254441D+04 0.14425604D+03 0.25814132D+04 0.14651271D+01  1  2  5  5  6  1       21 -.125878977111D+01
-.256674962307D-03 0.000000000000D+00 -.294275811295D-04 0.174297041073D-02 0.000000000000D+00  6 5 4 -13 13 4 5 4 0.11008277D-01 0.11001119D-01 0.21254441D+04 0.14425604D+03 0.25814132D+04 0.14651271D+01  1  2  5  5  6  1       21 -.522654258477D+00
0.115402058952D-03 0.000000000000D+00 0.000000000000D+00 0.174297041073D-02 0.980739208384D-04  6 1 4 -13 13 4 1 4 0.10968283D-01 0.11045697D-01 0.21916523D+04 0.15630283D+03 0.26098747D+04 0.14586089D+01  1  2 11  5  6  1       21 0.804808971684D+00
0.115402058952D-03 0.000000000000D+00 0.000000000000D+00 0.174297041073D-02 0.980739208384D-04  6 3 4 -13 13 4 3 4 0.10968283D-01 0.11045697D-01 0.21916523D+04 0.15630283D+03 0.26098747D+04 0.14586089D+01  1  2 11  5  6  1       21 0.544014801753D+00
0.115402058952D-03 0.000000000000D+00 0.000000000000D+00 0.174297041073D-02 0.980739208384D-04  6 5 4 -13 13 4 5 4 0.10968283D-01 0.11045697D-01 0.21916523D+04 0.15630283D+03 0.26098747D+04 0.14586089D+01  1  2 11  5  6  1       21 0.226237616049D+00
0.507091173030D-07 0.000000000000D+00 0.000000000000D+00 0.169149708249D-02 0.000000000000D+00  6 -4 4 -13 13 4 -4 4 0.11012728D-01 0.11001119D-01 0.21916523D+04 0.18946845D+03 0.26800637D+04 0.14433310D+01  1  2 12  6  6  1       21 0.151290247402D-03
0.507091173030D-07 0.000000000000D+00 0.000000000000D+00 0.169149708249D-02 0.000000000000D+00  6 -4 4 -13 13 4 -4 4 0.11012728D-01 0.11001119D-01 0.21916523D+04 0.18946845D+03 0.26800637D+04 0.14433310D+01  1  2 12  6  6  1       21 0.151290247402D-03
-.256674962307D-03 0.000000000000D+00 -.294275811295D-04 0.174297041073D-02 0.000000000000D+00  6 -4 4 -13 13 4 -4 4 0.11008277D-01 0.11001119D-01 0.21254441D+04 0.14425604D+03 0.25814132D+04 0.14651271D+01  1  2  5  6  6  1       21 -.826725680190D+00
0.132842156667D-03 0.000000000000D+00 0.000000000000D+00 0.174297041073D-02 0.143726503465D-02  6 -4 4 -13 13 4 -4 4 0.10968283D-01 0.11045697D-01 0.21916523D+04 0.18946845D+03 0.26800637D+04 0.14433310D+01  1  2 11  6  6  1       21 0.396329292082D+00
0.507091173030D-07 0.000000000000D+00 0.000000000000D+00 0.172749633357D-02 0.000000000000D+00  6 4 4 -13 13 4 4 4 0.11012728D-01 0.11001119D-01 0.21916523D+04 0.15630283D+03 0.26098747D+04 0.14586089D+01  1  2 12  7  6  1       21 0.156823336558D-03
0.507091173030D-07 0.000000000000D+00 0.000000000000D+00 0.172749633357D-02 0.000000000000D+00  6 4 4 -13 13 4 4 4 0.11012728D-01 0.11001119D-01 0.21916523D+04 0.15630283D+03 0.26098747D+04 0.14586089D+01  1  2 12  7  6  1       21 0.156823336558D-03
-.256674962307D-03 0.000000000000D+00 -.294275811295D-04 0.174297041073D-02 0.000000000000D+00  6 4 4 -13 13 4 4 4 0.11008277D-01 0.11001119D-01 0.21254441D+04 0.14425604D+03 0.25814132D+04 0.14651271D+01  1  2  5  7  6  1       21 -.825166866845D+00
0.100638703035D-03 0.000000000000D+00 0.000000000000D+00 0.174297041073D-02 0.529675083646D-04  6 4 4 -13 13 4 4 4 0.10968283D-01 0.11045697D-01 0.21916523D+04 0.15630283D+03 0.26098747D+04 0.14586089D+01  1  2 11  7  6  1       21 0.311235121750D+00
0.507091173030D-07 0.000000000000D+00 0.000000000000D+00 0.172749633357D-02 0.000000000000D+00  6 -2 4 -13 13 4 -2 4 0.11012728D-01 0.11001119D-01 0.21916523D+04 0.15630283D+03 0.26098747D+04 0.14586089D+01  1  2 12  8  6  1       21 0.277540571277D-03
0.507091173030D-07 0.000000000000D+00 0.000000000000D+00 0.172749633357D-02 0.000000000000D+00  6 -2 4 -13 13 4 -2 4 0.11012728D-01 0.11001119D-01 0.21916523D+04 0.15630283D+03 0.26098747D+04 0.14586089D+01  1  2 12  8  6  1       21 0.277540571277D-03
-.256674962307D-03 0.000000000000D+00 -.294275811295D-04 0.174297041073D-02 0.000000000000D+00  6 -2 4 -13 13 4 -2 4 0.11008277D-01 0.11001119D-01 0.21254441D+04 0.14425604D+03 0.25814132D+04 0.14651271D+01  1  2  5  8  6  1       21 -.146094116600D+01
0.112256671157D-03 0.000000000000D+00 0.000000000000D+00 0.174297041073D-02 0.954008271654D-04  6 -2 4 -13 13 4 -2 4 0.10968283D-01 0.11045697D-01 0.21916523D+04 0.15630283D+03 0.26098747D+04 0.14586089D+01  1  2 11  8  6  1       21 0.613962999267D+00
0.507091173030D-07 0.000000000000D+00 0.000000000000D+00 0.172749633357D-02 0.000000000000D+00  6 2 4 -13 13 4 2 4 0.11012728D-01 0.11001119D-01 0.21916523D+04 0.15630283D+03 0.26098747D+04 0.14586089D+01  1  2 12  9  6  1       21 0.400979005307D-03
0.507091173030D-07 0.000000000000D+00 0.000000000000D+00 0.172749633357D-02 0.000000000000D+00  6 2 4 -13 13 4 2 4 0.11012728D-01 0.11001119D-01 0.21916523D+04 0.15630283D+03 0.26098747D+04 0.14586089D+01  1  2 12  9  6  1       21 0.400979005307D-03
-.256674962307D-03 0.000000000000D+00 -.294275811295D-04 0.174297041073D-02 0.000000000000D+00  6 2 4 -13 13 4 2 4 0.11008277D-01 0.11001119D-01 0.21254441D+04 0.14425604D+03 0.25814132D+04 0.14651271D+01  1  2  5  9  6  1       21 -.211050233673D+01
0.111960965614D-03 0.000000000000D+00 0.000000000000D+00 0.174297041073D-02 0.951495231392D-04  6 2 4 -13 13 4 2 4 0.10968283D-01 0.11045697D-01 0.21916523D+04 0.15630283D+03 0.26098747D+04 0.14586089D+01  1  2 11  9  6  1       21 0.883601541103D+00
  </mgrwgt>
  </event>
  <event npLO=' -1 ' npNLO=' 1 '>
  6     66 0.13416416E+02 0.13159095E+02 0.75467711E-02 0.16644963E+00
       21 -1    0    0  501  502 0.00000000E+00 0.00000000E+00 0.40284381E+01 0.40284381E+01 0.00000000E+00 0.0000E+00 0.9000E+01
        2 -1    0    0  502    0 -.00000000E+00 -.00000000E+00 -.82601232E+03 0.82601232E+03 0.00000000E+00 0.0000E+00 0.9000E+01
       23  2    1    2    0    0 0.89736083E+00 -.13128462E+02 -.79430620E+03 0.79939413E+03 0.89081268E+02 0.0000E+00 0.0000E+00
      -13  1    3    3    0    0 0.41436824E+02 0.39759802E+01 -.26354730E+03 0.26681454E+03 0.00000000E+00 0.0000E+00 0.9000E+01
       13  1    3    3    0    0 -.40539463E+02 -.17104443E+02 -.53075890E+03 0.53257959E+03 0.00000000E+00 0.0000E+00 0.9000E+01
        2  1    1    2  501    0 -.89736083E+00 0.13128462E+02 -.27677677E+02 0.30646625E+02 0.00000000E+00 0.0000E+00 0.9000E+01
#aMCatNLO 1  0  0  5  1 0.11442336D+01 0.00000000D+00  -5  6  0 0.00000000D+00 0.00000000D+00 0.00000000D+00 0.00000000D+00 0.00000000D+00
  <mgrwgt>
 0.1492870823D+03    8    2    0
 0.576848291654865D+02 0.000000000000000D+00 0.000000000000000D+00 0.576848291654865D+02
 0.576848291654865D+02 -.000000000000000D+00 -.000000000000000D+00 -.576848291654865D+02
 0.419114469869449D+02 0.414368235762842D+02 0.397598024382192D+01 0.487346094147975D+01
 0.501648868343741D+02 -.405394627495471D+02 -.171044425832305D+02 -.240936895265257D+02
 0.232933245096541D+02 -.897360826737107D+00 0.131284623394086D+02 0.192202285850460D+02
 0.000000000000000D+00 0.000000000000000D+00 0.000000000000000D+00 0.000000000000000D+00
 0.576848291654865D+02 0.000000000000000D+00 0.000000000000000D+00 0.576848291654865D+02
 0.576848291654865D+02 -.000000000000000D+00 -.000000000000000D+00 -.576848291654865D+02
 0.419225050793417D+02 0.414330363488737D+02 0.403138769080163D+01 0.495457811794199D+01
 0.500994523863065D+02 -.405439922253076D+02 -.170381759821411D+02 -.239966744163350D+02
 0.205842560780238D+02 -.184387939715957D+01 0.112334236873772D+02 0.171499824872874D+02
 0.276344478730101D+01 0.954835273593409D+00 0.177336460396228D+01 0.189211381110563D+01
0.406589651103D-04 0.000000000000D+00 0.000000000000D+00 0.696583676368D-03 0.000000000000D+00  6 21 2 -13 13 2 21 2 0.61975971D-03 0.12707882D+00 0.24396857D+04 0.17316178D+03 0.26629238D+04 0.14504118D+01  1  2  2  3  6  5        2 0.207813492355D+02
0.399673867115D-05 0.197398193385D-05 0.895718667531D-07 0.696583676368D-03 0.000000000000D+00  6 21 2 -13 13 2 21 4 0.61975971D-03 0.12707882D+00 0.24396857D+04 0.17316178D+03 0.26629238D+04 0.14504118D+01  1  2  3  3  6  5        2 -.130896712483D+01
0.385173554417D-05 0.000000000000D+00 0.000000000000D+00 0.696583676368D-03 0.000000000000D+00  6 21 2 -13 13 2 21 4 0.61975971D-03 0.12707882D+00 0.24396857D+04 0.17316178D+03 0.26629238D+04 0.14504118D+01  1  2 15  3  6  5        2 0.414148915703D+01
0.121782307410D-07 0.000000000000D+00 0.000000000000D+00 0.692601362317D-03 0.000000000000D+00  6 21 2 -13 13 2 21 4 0.61975971D-03 0.12707882D+00 0.24505025D+04 0.18251370D+03 0.26801317D+04 0.14462599D+01  1  2 12  3  6  5        2 0.129530711944D-01
-.906000544884D-03 0.000000000000D+00 0.000000000000D+00 0.696583676368D-03 0.000000000000D+00  6 21 2 -13 13 2 21 4 0.61975971D-03 0.12707882D+00 0.24396857D+04 0.17316178D+03 0.26629238D+04 0.14504118D+01  1  2  4  3  6  5        2 -.974156036899D+03
-.946263942478D-03 0.000000000000D+00 0.000000000000D+00 0.696583676368D-03 0.000000000000D+00  6 21 2 -13 13 2 21 4 0.61975971D-03 0.12707882D+00 0.24396857D+04 0.17316178D+03 0.26629238D+04 0.14504118D+01  1  2  5  3  6  5        2 -.101744831973D+04
0.109213352331D-02 0.000000000000D+00 -.000000000000D+00 0.696583676368D-03 0.000000000000D+00  6 21 2 -13 13 2 21 4 0.61975971D-03 0.12707882D+00 0.24396857D+04 0.17316178D+03 0.26629238D+04 0.14504118D+01  1  2  6  3  6  5        2 0.117429119755D+04
0.886565640096D-03 0.000000000000D+00 0.000000000000D+00 0.696583676368D-03 0.449361573064D-02  6 21 2 -13 13 2 21 4 0.61975971D-03 0.12707882D+00 0.24505025D+04 0.18251370D+03 0.26801317D+04 0.14462599D+01  1  2 11  3  6  5        2 0.942973416988D+03
  </mgrwgt>
  </event>
  <event npLO=' -1 ' npNLO=' 1 '>
  6     66 -.13416416E+02 0.10228548E+02 0.75467711E-02 0.11918135E+00
       21 -1    0    0  501  502 0.00000000E+00 0.00000000E+00 0.24147354E+01 0.24147354E+01 0.00000000E+00 0.0000E+00 0.9000E+01
        2 -1    0    0  502    0 0.00000000E+00 0.00000000E+00 -.19810911E+04 0.19810911E+04 0.00000000E+00 0.0000E+00 0.9000E+01
       23  2    1    2    0    0 -.58585532E+00 -.10211756E+02 -.19604435E+04 0.19625998E+04 0.91404596E+02 0.0000E+00 0.0000E+00
      -11  1    3    3    0    0 0.21250288E+02 -.26055298E+01 -.11292155E+03 0.11493319E+03 0.00000000E+00 0.0000E+00 0.9000E+01
       11  1    3    3    0    0 -.21836144E+02 -.76062265E+01 -.18475219E+04 0.18476666E+04 0.00000000E+00 0.0000E+00 0.9000E+01
        2  1    1    2  501    0 0.58585532E+00 0.10211756E+02 -.18232862E+02 0.20905991E+02 0.00000000E+00 0.0000E+00 0.9000E+01
#aMCatNLO 1  0  0  1  5 0.24867793D+02 0.00000000D+00  -5  6  0 0.00000000D+00 0.00000000D+00 0.00000000D+00 0.00000000D+00 0.00000000D+00
  <mgrwgt>
 -.1336355776D+04   14    2    0
 0.691650980013810D+02 0.000000000000000D+00 0.000000000000000D+00 0.691650980013810D+02
 0.691650980013810D+02 0.000000000000000D+00 0.000000000000000D+00 -.691650980013810D+02
 0.327872512360818D+02 0.212502882794456D+02 -.260552978372951D+01 0.248322432777327D+02
 0.665766048726772D+02 -.218361435960231D+02 -.760622649433359D+01 -.624321429052643D+02
 0.389663398940031D+02 0.585855316577499D+00 0.102117562780631D+02 0.375998996275316D+02
 0.000000000000000D+00 -.000000000000000D+00 -.000000000000000D+00 0.000000000000000D+00
 0.527677788155485D+03 0.000000000000000D+00 0.000000000000000D+00 0.527677788155485D+03
 0.858829803521140D+02 0.000000000000000D+00 0.000000000000000D+00 -.858829803521140D+02
 0.516400106516965D+02 0.452639645183451D+02 0.110630465280558D+01 0.248322432777327D+02
 0.643294813160928D+02 0.153975212315420D+02 -.185095612546419D+01 -.624321429052643D+02
 0.473471816709511D+02 0.251360410688425D+02 0.140065198949297D+02 0.375998996275316D+02
 0.450244094868858D+03 -.857975268187297D+02 -.132618684222711D+02 0.441794807803371D+03
0.190931718213D-03 0.000000000000D+00 0.000000000000D+00 0.180266031794D-01 0.000000000000D+00  6 21 2 -11 11 2 21 2 0.37149775D-03 0.30478324D+00 0.74969032D+03 0.10462319D+03 0.26113976D+04 0.14921810D+01  1  2  2  1  6  1       21 0.534253842358D+02
0.309210226006D-04 0.926968409870D-05 0.420623357637D-06 0.180266031794D-01 0.000000000000D+00  6 21 2 -11 11 2 21 4 0.37149775D-03 0.30478324D+00 0.74969032D+03 0.10462319D+03 0.26113976D+04 0.14921810D+01  1  2  3  1  6  1       21 0.821858870070D+01
0.174067221786D-04 0.000000000000D+00 0.000000000000D+00 0.180266031794D-01 0.000000000000D+00  6 21 2 -11 11 2 21 4 0.37149775D-03 0.30478324D+00 0.74969032D+03 0.10462319D+03 0.26113976D+04 0.14921810D+01  1  2 15  1  6  1       21 0.108450011381D+02
-.477076134032D-01 0.000000000000D+00 -.399095642441D-02 0.180266031794D-01 0.000000000000D+00  6 21 2 -11 11 2 21 4 0.36952634D-02 0.30478324D+00 0.74969032D+03 0.10462319D+03 0.26113976D+04 0.14921810D+01  1  2  5  1  6  1       21 -.115660866950D+04
-.210622776221D-01 0.000000000000D+00 -.174430348514D-02 0.180266031794D-01 0.000000000000D+00  6 -1 2 -11 11 2 -1 4 0.36952634D-02 0.30478324D+00 0.74969032D+03 0.10462319D+03 0.26113976D+04 0.14921810D+01  1  2  5  4  6  1       21 -.307162401123D+02
-.210622776221D-01 0.000000000000D+00 -.174430348514D-02 0.180266031794D-01 0.000000000000D+00  6 -3 2 -11 11 2 -3 4 0.36952634D-02 0.30478324D+00 0.74969032D+03 0.10462319D+03 0.26113976D+04 0.14921810D+01  1  2  5  4  6  1       21 -.276862814371D+02
-.210622776221D-01 0.000000000000D+00 -.174430348514D-02 0.180266031794D-01 0.000000000000D+00  6 -5 2 -11 11 2 -5 4 0.36952634D-02 0.30478324D+00 0.74969032D+03 0.10462319D+03 0.26113976D+04 0.14921810D+01  1  2  5  4  6  1       21 -.131885648094D+02
-.210622776221D-01 0.000000000000D+00 -.174430348514D-02 0.180266031794D-01 0.000000000000D+00  6 1 2 -11 11 2 1 4 0.36952634D-02 0.30478324D+00 0.74969032D+03 0.10462319D+03 0.26113976D+04 0.14921810D+01  1  2  5  5  6  1       21 -.335205306329D+02
-.210622776221D-01 0.000000000000D+00 -.174430348514D-02 0.180266031794D-01 0.000000000000D+00  6 3 2 -11 11 2 3 4 0.36952634D-02 0.30478324D+00 0.74969032D+03 0.10462319D+03 0.26113976D+04 0.14921810D+01  1  2  5  5  6  1       21 -.276448654449D+02
-.210622776221D-01 0.000000000000D+00 -.174430348514D-02 0.180266031794D-01 0.000000000000D+00  6 5 2 -11 11 2 5 4 0.36952634D-02 0.30478324D+00 0.74969032D+03 0.10462319D+03 0.26113976D+04 0.14921810D+01  1  2  5  5  6  1       21 -.131858767799D+02
-.210622776221D-01 0.000000000000D+00 -.174430348514D-02 0.180266031794D-01 0.000000000000D+00  6 -2 2 -11 11 2 -2 4 0.36952634D-02 0.30478324D+00 0.74969032D+03 0.10462319D+03 0.26113976D+04 0.14921810D+01  1  2  5  6  6  1       21 -.305081671275D+02
-.210622776221D-01 0.000000000000D+00 -.174430348514D-02 0.180266031794D-01 0.000000000000D+00  6 2 2 -11 11 2 2 4 0.36952634D-02 0.30478324D+00 0.74969032D+03 0.10462319D+03 0.26113976D+04 0.14921810D+01  1  2  5  7  6  1       21 -.354195136371D+02
-.210622776221D-01 0.000000000000D+00 -.174430348514D-02 0.180266031794D-01 0.000000000000D+00  6 -4 2 -11 11 2 -4 4 0.36952634D-02 0.30478324D+00 0.74969032D+03 0.10462319D+03 0.26113976D+04 0.14921810D+01  1  2  5  8  6  1       21 -.201870926003D+02
-.210622776221D-01 0.000000000000D+00 -.174430348514D-02 0.180266031794D-01 0.000000000000D+00  6 4 2 -11 11 2 4 4 0.36952634D-02 0.30478324D+00 0.74969032D+03 0.10462319D+03 0.26113976D+04 0.14921810D+01  1  2  5  9  6  1       21 -.201789483011D+02
  </mgrwgt>
  </event>
  <event npLO=' -1 ' npNLO=' 1 '>
  7     66 -.13416416E+02 0.22320778E+02 0.75467711E-02 0.14584587E+00
       21 -1    0    0  503  502 0.00000000E+00 0.00000000E+00 0.14210960E+03 0.14210960E+03 0.00000000E+00 0.0000E+00 0.9000E+01
        2 -1    0    0  502    0 0.00000000E+00 0.00000000E+00 -.33054179E+03 0.33054179E+03 0.00000000E+00 0.0000E+00 0.9000E+01
       23  2    1    2    0    0 0.28974952E+02 0.38986342E+01 -.21131694E+03 0.23267484E+03 0.92886936E+02 0.0000E+00 0.0000E+00
      -13  1    3    3    0    0 0.34255621E+02 -.34136538E+02 -.16783812E+03 0.17466649E+03 0.00000000E+00 0.0000E+00 0.9000E+01
       13  1    3    3    0    0 -.52806685E+01 0.38035172E+02 -.43478829E+02 0.58008347E+02 0.00000000E+00 0.0000E+00 0.9000E+01
        2  1    1    2  501    0 -.25505670E+02 0.15562531E+01 -.10696049E+03 0.10997048E+03 0.00000000E+00 0.0000E+00 0.9000E+01
       21  1    1    2  503  501 -.34692826E+01 -.54548872E+01 0.12984524E+03 0.13000607E+03 0.00000000E+00 0.0000E+00 0.9000E+01
#aMCatNLO 2  0  0  1  5 0.64655113D+01 0.00000000D+00  -5  6  0 0.00000000D+00 0.00000000D+00 0.00000000D+00 0.00000000D+00 0.00000000D+00
  <mgrwgt>
 -.3066902759D+03    3    2    0
 0.633709349136302D+02 0.000000000000000D+00 0.000000000000000D+00 0.633709349136302D+02
 0.633709349136302D+02 0.000000000000000D+00 0.000000000000000D+00 -.633709349136302D+02
 0.512612049542212D+02 0.328615394620431D+02 -.363285058284137D+02 -.151019873466430D+02
 0.461473489865629D+02 -.656259831824142D+01 0.360195440355967D+02 0.280909695323738D+02
 0.293333158864762D+02 -.262989411438017D+02 0.308961792817039D+00 -.129889821857308D+02
 0.000000000000000D+00 -.000000000000000D+00 -.000000000000000D+00 0.000000000000000D+00
 0.740098977923743D+03 0.000000000000000D+00 0.000000000000000D+00 0.740098977923743D+03
 0.634687568432941D+02 0.000000000000000D+00 0.000000000000000D+00 -.634687568432941D+02
 0.506638015720141D+02 0.342556208183481D+02 -.341365377602915D+02 -.151019873466430D+02
 0.475779605724778D+02 -.528066848450094D+01 0.380351719244740D+02 0.280909695323738D+02
 0.286648700049990D+02 -.255056697729531D+02 0.155625306917721D+01 -.129889821857308D+02
 0.676661102617546D+03 -.346928256089406D+01 -.545488723335965D+01 0.676630221080449D+03
-.343625816368D+00 0.000000000000D+00 0.000000000000D+00 0.137054917943D-03 0.000000000000D+00  6 21 2 -13 13 2 21 4 0.21896764D-01 0.50774206D-01 0.35270762D+04 0.67336243D+03 0.37449937D+04 0.13537922D+01  1  2 13  1  6  1       21 -.300008256490D+04
-.343625816368D+00 0.000000000000D+00 0.000000000000D+00 0.137054917943D-03 0.000000000000D+00  6 21 2 -13 13 2 21 4 0.21896764D-01 0.50774206D-01 0.35270762D+04 0.67336243D+03 0.37449937D+04 0.13537922D+01  1  2 13  1  6  1       21 -.300008256490D+04
0.651392835347D+00 0.000000000000D+00 0.000000000000D+00 0.136707465773D-03 0.122442527831D-01  6 21 2 -13 13 2 21 4 0.21863016D-01 0.50852583D-01 0.35270762D+04 0.67336243D+03 0.37449937D+04 0.13537922D+01  1  2  1  1  6  1       21 0.569347485393D+04
  </mgrwgt>
  </event>
  <event npLO=' -1 ' npNLO=' 1 '>
  6     66 0.13416416E+02 0.45969214E+02 0.75467711E-02 0.13164129E+00
       21 -1    0    0  501  502 0.00000000E+00 0.00000000E+00 0.22412173E+02 0.22412173E+02 0.00000000E+00 0.0000E+00 0.9000E+01
        4 -1    0    0  502    0 0.00000000E+00 0.00000000E+00 -.34336908E+03 0.34336908E+03 0.00000000E+00 0.0000E+00 0.9000E+01
       23  2    1    2    0    0 -.41054632E+02 -.20680566E+02 -.29909459E+03 0.31487811E+03 0.87048741E+02 0.0000E+00 0.0000E+00
      -13  1    3    3    0    0 -.16979781E+02 0.15035675E+02 -.14227835E+02 0.26773416E+02 0.00000000E+00 0.0000E+00 0.9000E+01
       13  1    3    3    0    0 -.24074851E+02 -.35716241E+02 -.28486676E+03 0.28810470E+03 0.00000000E+00 0.0000E+00 0.9000E+01
        4  1    1    2  501    0 0.41054632E+02 0.20680566E+02 -.21862314E+02 0.50903138E+02 0.00000000E+00 0.0000E+00 0.9000E+01
#aMCatNLO 1  0  0  1  5 0.11658187D+01 0.00000000D+00  -5  6  0 0.00000000D+00 0.00000000D+00 0.00000000D+00 0.00000000D+00 0.00000000D+00
  <mgrwgt>
 0.3156297828D+02   49    2    0
 0.877248380781170D+02 0.000000000000000D+00 0.000000000000000D+00 0.877248380781170D+02
 0.877248380781170D+02 0.000000000000000D+00 0.000000000000000D+00 -.877248380781170D+02
 0.297902604117567D+02 -.169797813555812D+02 0.150356749839783D+02 0.193151525568167D+02
 0.795290413570632D+02 -.240748510076706D+02 -.357162410306335D+02 -.668552174087679D+02
 0.661303743874141D+02 0.410546323632518D+02 0.206805660466552D+02 0.475400648519511D+02
 0.000000000000000D+00 -.000000000000000D+00 0.000000000000000D+00 0.000000000000000D+00
 0.894130789132842D+02 0.000000000000000D+00 0.000000000000000D+00 0.894130789132842D+02
 0.879081702282350D+02 0.000000000000000D+00 0.000000000000000D+00 -.879081702282350D+02
 0.296687948410072D+02 -.169248624205304D+02 0.148563555783641D+02 0.193151525568167D+02
 0.797015817510206D+02 -.239277787709625D+02 -.361964562067736D+02 -.668552174087679D+02
 0.660827905030951D+02 0.411767501161260D+02 0.202818313872874D+02 0.475400648519511D+02
 0.186808204639637D+01 -.324108924633149D+00 0.105826924112215D+01 0.150490868504915D+01
0.537834576048D-03 0.000000000000D+00 0.000000000000D+00 0.850487772033D-04 0.000000000000D+00  6 21 4 -13 13 4 21 2 0.34480266D-02 0.52826012D-01 0.31204432D+04 0.21131687D+04 0.52135854D+04 0.12862999D+01  1  2  2  1  6  1       21 0.538641999349D+01
-.302516976749D-04 0.261117255110D-04 0.118485177501D-05 0.850487772033D-04 0.000000000000D+00  6 21 4 -13 13 4 21 4 0.34480266D-02 0.52826012D-01 0.31204432D+04 0.21131687D+04 0.52135854D+04 0.12862999D+01  1  2  3  1  6  1       21 -.659862987868D+00
0.359534777177D-04 0.000000000000D+00 0.000000000000D+00 0.850487772033D-04 0.000000000000D+00  6 21 4 -13 13 4 21 4 0.34480266D-02 0.52826012D-01 0.31204432D+04 0.21131687D+04 0.52135854D+04 0.12862999D+01  1  2 15  1  6  1       21 0.595767553672D+00
0.316086291522D-07 0.000000000000D+00 0.000000000000D+00 0.850326336629D-04 0.000000000000D+00  6 21 4 -13 13 4 21 4 0.35217275D-02 0.52826012D-01 0.31876261D+04 0.21179054D+04 0.52190417D+04 0.12861778D+01  1  2 12  1  6  1       21 0.506762736996D-03
0.316086291522D-07 0.000000000000D+00 0.000000000000D+00 0.850326336629D-04 0.000000000000D+00  6 21 4 -13 13 4 21 4 0.35217275D-02 0.52826012D-01 0.31876261D+04 0.21179054D+04 0.52190417D+04 0.12861778D+01  1  2 12  1  6  1       21 0.506762736996D-03
-.164821595779D-01 0.000000000000D+00 0.000000000000D+00 0.850487772033D-04 0.000000000000D+00  6 21 4 -13 13 4 21 4 0.34480266D-02 0.52826012D-01 0.31204432D+04 0.21131687D+04 0.52135854D+04 0.12862999D+01  1  2  4  1  6  1       21 -.273117832107D+03
-.661130676802D-01 0.000000000000D+00 -.590848136123D-02 0.850487772033D-04 0.000000000000D+00  6 21 4 -13 13 4 21 4 0.35214910D-02 0.52826012D-01 0.31204432D+04 0.21131687D+04 0.52135854D+04 0.12862999D+01  1  2  5  1  6  1       21 -.110900210140D+04
0.661720933355D-01 0.000000000000D+00 0.590323241093D-02 0.850487772033D-04 0.000000000000D+00  6 21 4 -13 13 4 21 4 0.34480266D-02 0.52826012D-01 0.31204432D+04 0.21131687D+04 0.52135854D+04 0.12862999D+01  1  2  6  1  6  1       21 0.114671558834D+04
0.164209920398D-01 0.000000000000D+00 0.000000000000D+00 0.850487772033D-04 0.114417745161D-02  6 21 4 -13 13 4 21 4 0.35143830D-02 0.52936411D-01 0.31876261D+04 0.21179054D+04 0.52190417D+04 0.12861778D+01  1  2 11  1  6  1       21 0.262885404412D+03
0.234154062484D-08 0.000000000000D+00 0.000000000000D+00 0.850326336629D-04 0.000000000000D+00  6 -1 4 -13 13 4 -1 4 0.35217275D-02 0.52826012D-01 0.31876261D+04 0.21179054D+04 0.52190417D+04 0.12861778D+01  1  2 12  4  6  1       21 0.224713204537D-05
0.234154062484D-08 0.000000000000D+00 0.000000000000D+00 0.850326336629D-04 0.000000000000D+00  6 -3 4 -13 13 4 -3 4 0.35217275D-02 0.52826012D-01 0.31876261D+04 0.21179054D+04 0.52190417D+04 0.12861778D+01  1  2 12  4  6  1       21 0.203872273841D-05
0.234154062484D-08 0.000000000000D+00 0.000000000000D+00 0.850326336629D-04 0.000000000000D+00  6 -5 4 -13 13 4 -5 4 0.35217275D-02 0.52826012D-01 0.31876261D+04 0.21179054D+04 0.52190417D+04 0.12861778D+01  1  2 12  4  6  1       21 0.103857791158D-05
0.234154062484D-08 0.000000000000D+00 0.000000000000D+00 0.850326336629D-04 0.000000000000D+00  6 -1 4 -13 13 4 -1 4 0.35217275D-02 0.52826012D-01 0.31876261D+04 0.21179054D+04 0.52190417D+04 0.12861778D+01  1  2 12  4  6  1       21 0.224713204537D-05
0.234154062484D-08 0.000000000000D+00 0.000000000000D+00 0.850326336629D-04 0.000000000000D+00  6 -3 4 -13 13 4 -3 4 0.35217275D-02 0.52826012D-01 0.31876261D+04 0.21179054D+04 0.52190417D+04 0.12861778D+01  1  2 12  4  6  1       21 0.203872273841D-05
0.234154062484D-08 0.000000000000D+00 0.000000000000D+00 0.850326336629D-04 0.000000000000D+00  6 -5 4 -13 13 4 -5 4 0.35217275D-02 0.52826012D-01 0.31876261D+04 0.21179054D+04 0.52190417D+04 0.12861778D+01  1  2 12  4  6  1       21 0.103857791158D-05
-.295129671651D-03 0.000000000000D+00 -.285580353993D-04 0.850487772033D-04 0.000000000000D+00  6 -1 4 -13 13 4 -1 4 0.35214910D-02 0.52826012D-01 0.31204432D+04 0.21131687D+04 0.52135854D+04 0.12862999D+01  1  2  5  4  6  1       21 -.297409077297D+00
-.295129671651D-03 0.000000000000D+00 -.285580353993D-04 0.850487772033D-04 0.000000000000D+00  6 -3 4 -13 13 4 -3 4 0.35214910D-02 0.52826012D-01 0.31204432D+04 0.21131687D+04 0.52135854D+04 0.12862999D+01  1  2  5  4  6  1       21 -.269825217933D+00
-.295129671651D-03 0.000000000000D+00 -.285580353993D-04 0.850487772033D-04 0.000000000000D+00  6 -5 4 -13 13 4 -5 4 0.35214910D-02 0.52826012D-01 0.31204432D+04 0.21131687D+04 0.52135854D+04 0.12862999D+01  1  2  5  4  6  1       21 -.137445409159D+00
0.147905989094D-03 0.000000000000D+00 0.000000000000D+00 0.850487772033D-04 0.614419520704D-05  6 -1 4 -13 13 4 -1 4 0.35143830D-02 0.52936411D-01 0.31876261D+04 0.21179054D+04 0.52190417D+04 0.12861778D+01  1  2 11  4  6  1       21 0.141695235467D+00
0.147905989094D-03 0.000000000000D+00 0.000000000000D+00 0.850487772033D-04 0.614419520704D-05  6 -3 4 -13 13 4 -3 4 0.35143830D-02 0.52936411D-01 0.31876261D+04 0.21179054D+04 0.52190417D+04 0.12861778D+01  1  2 11  4  6  1       21 0.128566034403D+00
0.147905989094D-03 0.000000000000D+00 0.000000000000D+00 0.850487772033D-04 0.614419520704D-05  6 -5 4 -13 13 4 -5 4 0.35143830D-02 0.52936411D-01 0.31876261D+04 0.21179054D+04 0.52190417D+04 0.12861778D+01  1  2 11  4  6  1       21 0.655098676175D-01
0.234154062484D-08 0.000000000000D+00 0.000000000000D+00 0.850326336629D-04 0.000000000000D+00  6 1 4 -13 13 4 1 4 0.35217275D-02 0.52826012D-01 0.31876261D+04 0.21179054D+04 0.52190417D+04 0.12861778D+01  1  2 12  5  6  1       21 0.244030488643D-05
0.234154062484D-08 0.000000000000D+00 0.000000000000D+00 0.850326336629D-04 0.000000000000D+00  6 3 4 -13 13 4 3 4 0.35217275D-02 0.52826012D-01 0.31876261D+04 0.21179054D+04 0.52190417D+04 0.12861778D+01  1  2 12  5  6  1       21 0.203582811864D-05
0.234154062484D-08 0.000000000000D+00 0.000000000000D+00 0.850326336629D-04 0.000000000000D+00  6 5 4 -13 13 4 5 4 0.35217275D-02 0.52826012D-01 0.31876261D+04 0.21179054D+04 0.52190417D+04 0.12861778D+01  1  2 12  5  6  1       21 0.103838651116D-05
0.234154062484D-08 0.000000000000D+00 0.000000000000D+00 0.850326336629D-04 0.000000000000D+00  6 1 4 -13 13 4 1 4 0.35217275D-02 0.52826012D-01 0.31876261D+04 0.21179054D+04 0.52190417D+04 0.12861778D+01  1  2 12  5  6  1       21 0.244030488643D-05
0.234154062484D-08 0.000000000000D+00 0.000000000000D+00 0.850326336629D-04 0.000000000000D+00  6 3 4 -13 13 4 3 4 0.35217275D-02 0.52826012D-01 0.31876261D+04 0.21179054D+04 0.52190417D+04 0.12861778D+01  1  2 12  5  6  1       21 0.203582811864D-05
0.234154062484D-08 0.000000000000D+00 0.000000000000D+00 0.850326336629D-04 0.000000000000D+00  6 5 4 -13 13 4 5 4 0.35217275D-02 0.52826012D-01 0.31876261D+04 0.21179054D+04 0.52190417D+04 0.12861778D+01  1  2 12  5  6  1       21 0.103838651116D-05
-.295129671651D-03 0.000000000000D+00 -.285580353993D-04 0.850487772033D-04 0.000000000000D+00  6 1 4 -13 13 4 1 4 0.35214910D-02 0.52826012D-01 0.31204432D+04 0.21131687D+04 0.52135854D+04 0.12862999D+01  1  2  5  5  6  1       21 -.322975045660D+00
-.295129671651D-03 0.000000000000D+00 -.285580353993D-04 0.850487772033D-04 0.000000000000D+00  6 3 4 -13 13 4 3 4 0.35214910D-02 0.52826012D-01 0.31204432D+04 0.21131687D+04 0.52135854D+04 0.12862999D+01  1  2  5  5  6  1       21 -.269442029099D+00
-.295129671651D-03 0.000000000000D+00 -.285580353993D-04 0.850487772033D-04 0.000000000000D+00  6 5 4 -13 13 4 5 4 0.35214910D-02 0.52826012D-01 0.31204432D+04 0.21131687D+04 0.52135854D+04 0.12862999D+01  1  2  5  5  6  1       21 -.137420082580D+00
0.148467960023D-03 0.000000000000D+00 0.000000000000D+00 0.850487772033D-04 0.616754016495D-05  6 1 4 -13 13 4 1 4 0.35143830D-02 0.52936411D-01 0.31876261D+04 0.21179054D+04 0.52190417D+04 0.12861778D+01  1  2 11  5  6  1       21 0.154440245181D+00
0.148467960023D-03 0.000000000000D+00 0.000000000000D+00 0.850487772033D-04 0.616754016495D-05  6 3 4 -13 13 4 3 4 0.35143830D-02 0.52936411D-01 0.31876261D+04 0.21179054D+04 0.52190417D+04 0.12861778D+01  1  2 11  5  6  1       21 0.128870891235D+00
0.148467960023D-03 0.000000000000D+00 0.000000000000D+00 0.850487772033D-04 0.616754016495D-05  6 5 4 -13 13 4 5 4 0.35143830D-02 0.52936411D-01 0.31876261D+04 0.21179054D+04 0.52190417D+04 0.12861778D+01  1  2 11  5  6  1       21 0.657467058881D-01
0.234154062484D-08 0.000000000000D+00 0.000000000000D+00 0.850326336629D-04 0.000000000000D+00  6 -4 4 -13 13 4 -4 4 0.35217275D-02 0.52826012D-01 0.31876261D+04 0.21179054D+04 0.52190417D+04 0.12861778D+01  1  2 12  6  6  1       21 0.152279165517D-05
0.234154062484D-08 0.000000000000D+00 0.000000000000D+00 0.850326336629D-04 0.000000000000D+00  6 -4 4 -13 13 4 -4 4 0.35217275D-02 0.52826012D-01 0.31876261D+04 0.21179054D+04 0.52190417D+04 0.12861778D+01  1  2 12  6  6  1       21 0.152279165517D-05
-.295129671651D-03 0.000000000000D+00 -.285580353993D-04 0.850487772033D-04 0.000000000000D+00  6 -4 4 -13 13 4 -4 4 0.35214910D-02 0.52826012D-01 0.31204432D+04 0.21131687D+04 0.52135854D+04 0.12862999D+01  1  2  5  6  6  1       21 -.201537141004D+00
0.235826452469D-03 0.000000000000D+00 0.000000000000D+00 0.850487772033D-04 0.160518455692D-04  6 -4 4 -13 13 4 -4 4 0.35143830D-02 0.52936411D-01 0.31876261D+04 0.21179054D+04 0.52190417D+04 0.12861778D+01  1  2 11  6  6  1       21 0.153139927408D+00
0.234154062484D-08 0.000000000000D+00 0.000000000000D+00 0.850326336629D-04 0.000000000000D+00  6 4 4 -13 13 4 4 4 0.35217275D-02 0.52826012D-01 0.31876261D+04 0.21179054D+04 0.52190417D+04 0.12861778D+01  1  2 12  7  6  1       21 0.152223365093D-05
0.234154062484D-08 0.000000000000D+00 0.000000000000D+00 0.850326336629D-04 0.000000000000D+00  6 4 4 -13 13 4 4 4 0.35217275D-02 0.52826012D-01 0.31876261D+04 0.21179054D+04 0.52190417D+04 0.12861778D+01  1  2 12  7  6  1       21 0.152223365093D-05
-.295129671651D-03 0.000000000000D+00 -.285580353993D-04 0.850487772033D-04 0.000000000000D+00  6 4 4 -13 13 4 4 4 0.35214910D-02 0.52826012D-01 0.31204432D+04 0.21131687D+04 0.52135854D+04 0.12862999D+01  1  2  5  7  6  1       21 -.201463300713D+00
0.146736869084D-03 0.000000000000D+00 0.000000000000D+00 0.850487772033D-04 0.316660364930D-05  6 4 4 -13 13 4 4 4 0.35143830D-02 0.52936411D-01 0.31876261D+04 0.21179054D+04 0.52190417D+04 0.12861778D+01  1  2 11  7  6  1       21 0.952525611607D-01
0.234154062484D-08 0.000000000000D+00 0.000000000000D+00 0.850326336629D-04 0.000000000000D+00  6 -2 4 -13 13 4 -2 4 0.35217275D-02 0.52826012D-01 0.31876261D+04 0.21179054D+04 0.52190417D+04 0.12861778D+01  1  2 12  8  6  1       21 0.223288239444D-05
0.234154062484D-08 0.000000000000D+00 0.000000000000D+00 0.850326336629D-04 0.000000000000D+00  6 -2 4 -13 13 4 -2 4 0.35217275D-02 0.52826012D-01 0.31876261D+04 0.21179054D+04 0.52190417D+04 0.12861778D+01  1  2 12  8  6  1       21 0.223288239444D-05
-.295129671651D-03 0.000000000000D+00 -.285580353993D-04 0.850487772033D-04 0.000000000000D+00  6 -2 4 -13 13 4 -2 4 0.35214910D-02 0.52826012D-01 0.31204432D+04 0.21131687D+04 0.52135854D+04 0.12862999D+01  1  2  5  8  6  1       21 -.295523556055D+00
0.146002220547D-03 0.000000000000D+00 0.000000000000D+00 0.850487772033D-04 0.606511033933D-05  6 -2 4 -13 13 4 -2 4 0.35143830D-02 0.52936411D-01 0.31876261D+04 0.21179054D+04 0.52190417D+04 0.12861778D+01  1  2 11  8  6  1       21 0.138988800362D+00
0.234154062484D-08 0.000000000000D+00 0.000000000000D+00 0.850326336629D-04 0.000000000000D+00  6 2 4 -13 13 4 2 4 0.35217275D-02 0.52826012D-01 0.31876261D+04 0.21179054D+04 0.52190417D+04 0.12861778D+01  1  2 12  9  6  1       21 0.257166839419D-05
0.234154062484D-08 0.000000000000D+00 0.000000000000D+00 0.850326336629D-04 0.000000000000D+00  6 2 4 -13 13 4 2 4 0.35217275D-02 0.52826012D-01 0.31876261D+04 0.21179054D+04 0.52190417D+04 0.12861778D+01  1  2 12  9  6  1       21 0.257166839419D-05
-.295129671651D-03 0.000000000000D+00 -.285580353993D-04 0.850487772033D-04 0.000000000000D+00  6 2 4 -13 13 4 2 4 0.35214910D-02 0.52826012D-01 0.31204432D+04 0.21131687D+04 0.52135854D+04 0.12862999D+01  1  2  5  9  6  1       21 -.340360571251D+00
0.145725361417D-03 0.000000000000D+00 0.000000000000D+00 0.850487772033D-04 0.605360927336D-05  6 2 4 -13 13 4 2 4 0.35143830D-02 0.52936411D-01 0.31876261D+04 0.21179054D+04 0.52190417D+04 0.12861778D+01  1  2 11  9  6  1       21 0.159734726704D+00
  </mgrwgt>
  </event>
  <event npLO=' -1 ' npNLO=' 1 '>
  6     66 0.13416416E+02 0.14989031E+02 0.75467711E-02 0.17303054E+00
       21 -1    0    0  501  502 0.00000000E+00 0.00000000E+00 0.10604503E+01 0.10604503E+01 0.00000000E+00 0.0000E+00 0.9000E+01
        2 -1    0    0  502    0 -.00000000E+00 -.00000000E+00 -.27447286E+04 0.27447286E+04 0.00000000E+00 0.0000E+00 0.9000E+01
       23  2    1    2    0    0 -.11605175E+02 0.94863569E+01 -.24522792E+04 0.24540148E+04 0.91054262E+02 0.0000E+00 0.0000E+00
      -13  1    3    3    0    0 0.38193045E+02 0.16576588E+02 -.10060408E+04 0.10069020E+04 0.00000000E+00 0.0000E+00 0.9000E+01
       13  1    3    3    0    0 -.49798220E+02 -.70902311E+01 -.14462384E+04 0.14471128E+04 0.00000000E+00 0.0000E+00 0.9000E+01
        2  1    1    2  501    0 0.11605175E+02 -.94863569E+01 -.29138900E+03 0.29177426E+03 0.00000000E+00 0.0000E+00 0.9000E+01
#aMCatNLO 1  0  0  5  1 0.35204570D+01 0.00000000D+00  -5  6  0 0.00000000D+00 0.00000000D+00 0.00000000D+00 0.00000000D+00 0.00000000D+00
  <mgrwgt>
 0.6452868501D+03    8    2    0
 0.539504240550291D+02 0.000000000000000D+00 0.000000000000000D+00 0.539504240550291D+02
 0.539504240550291D+02 -.000000000000000D+00 -.000000000000000D+00 -.539504240550291D+02
 0.416893097541703D+02 0.381930446902959D+02 0.165765880705243D+02 0.212287847140952D+01
 0.506800829790921D+02 -.497982195497127D+02 -.709023114508633D+01 -.619166881830088D+01
 0.155314553767959D+02 0.116051748594168D+02 -.948635692543794D+01 0.406879034689136D+01
 0.000000000000000D+00 0.000000000000000D+00 -.000000000000000D+00 0.000000000000000D+00
 0.539504240550291D+02 0.000000000000000D+00 0.000000000000000D+00 0.539504240550291D+02
 0.539504240550291D+02 -.000000000000000D+00 -.000000000000000D+00 -.539504240550291D+02
 0.421476406770713D+02 0.389306332516071D+02 0.159736649399830D+02 0.238147804053236D+01
 0.498815690207745D+02 -.489134888451710D+02 -.781343190232147D+01 -.588148101037514D+01
 0.124579106872681D+02 0.991806245797111D+01 -.529950427429052D+01 0.536160705558593D+01
 0.341372772494439D+01 0.647931355928599D-01 -.286072876337105D+01 -.186160408574316D+01
0.812107555400D-03 0.000000000000D+00 0.000000000000D+00 0.116916450475D-02 0.000000000000D+00  6 21 2 -13 13 2 21 2 0.16314620D-03 0.42226594D+00 0.28582225D+04 0.22467105D+03 0.28766471D+04 0.14302120D+01  1  2  2  3  6  5        2 0.258948673991D+03
0.268428877786D-04 0.394276056549D-04 0.178907627246D-05 0.116916450475D-02 0.000000000000D+00  6 21 2 -13 13 2 21 4 0.16314620D-03 0.42226594D+00 0.28582225D+04 0.22467105D+03 0.28766471D+04 0.14302120D+01  1  2  3  3  6  5        2 -.478884111198D+02
0.692586360021D-04 0.000000000000D+00 0.000000000000D+00 0.116916450475D-02 0.000000000000D+00  6 21 2 -13 13 2 21 4 0.16314620D-03 0.42226594D+00 0.28582225D+04 0.22467105D+03 0.28766471D+04 0.14302120D+01  1  2 15  3  6  5        2 0.451725797387D+02
0.411117630259D-04 0.000000000000D+00 0.000000000000D+00 0.124281770589D-02 0.000000000000D+00  6 21 2 -13 13 2 21 4 0.16314620D-03 0.42226594D+00 0.27942062D+04 0.12867735D+03 0.26574923D+04 0.14745731D+01  1  2 12  3  6  5        2 0.301322121673D+02
-.336280661047D-02 0.000000000000D+00 0.000000000000D+00 0.116916450475D-02 0.000000000000D+00  6 21 2 -13 13 2 21 4 0.16314620D-03 0.42226594D+00 0.28582225D+04 0.22467105D+03 0.28766471D+04 0.14302120D+01  1  2  4  3  6  5        2 -.219332430620D+04
-.118022892314D-02 0.000000000000D+00 0.000000000000D+00 0.116916450475D-02 0.000000000000D+00  6 21 2 -13 13 2 21 4 0.16314620D-03 0.42226594D+00 0.28582225D+04 0.22467105D+03 0.28766471D+04 0.14302120D+01  1  2  5  3  6  5        2 -.769781044188D+03
0.164532631500D-02 0.000000000000D+00 -.000000000000D+00 0.116916450475D-02 0.000000000000D+00  6 21 2 -13 13 2 21 4 0.16314620D-03 0.42226594D+00 0.28582225D+04 0.22467105D+03 0.28766471D+04 0.14302120D+01  1  2  6  3  6  5        2 0.107313164756D+04
0.306834620293D-02 0.000000000000D+00 0.000000000000D+00 0.116916450475D-02 0.289598364225D-02  6 21 2 -13 13 2 21 4 0.16314620D-03 0.42226594D+00 0.27942062D+04 0.12867735D+03 0.26574923D+04 0.14745731D+01  1  2 11  3  6  5        2 0.224889549814D+04
  </mgrwgt>
  </event>
  <event npLO=' -1 ' npNLO=' 1 '>
  7     66 0.13416416E+02 0.99245395E+01 0.75467711E-02 0.17823757E+00
       21 -1    0    0  503  502 0.00000000E+00 0.00000000E+00 0.23703692E+02 0.23703692E+02 0.00000000E+00 0.0000E+00 0.9000E+01
        2 -1    0    0  502    0 0.00000000E+00 0.00000000E+00 -.73175655E+03 0.73175655E+03 0.00000000E+00 0.0000E+00 0.9000E+01
       23  2    1    2    0    0 -.88540530E+00 -.99313351E+01 -.72939212E+03 0.73173556E+03 0.57659702E+02 0.0000E+00 0.0000E+00
      -11  1    3    3    0    0 -.30024261E+01 0.23846409E+02 -.25115960E+03 0.25230698E+03 0.00000000E+00 0.0000E+00 0.9000E+01
       11  1    3    3    0    0 0.21170208E+01 -.33777745E+02 -.47823252E+03 0.47942858E+03 0.00000000E+00 0.0000E+00 0.9000E+01
        2  1    1    2  501    0 0.10445290E+01 0.99499689E+01 0.19868618E+02 0.22245334E+02 0.00000000E+00 0.0000E+00 0.9000E+01
       21  1    1    2  503  501 -.15912374E+00 -.18633803E-01 0.14706485E+01 0.14793494E+01 0.00000000E+00 0.0000E+00 0.9000E+01
#aMCatNLO 2  0  0  1  2 0.11866498D+02 0.00000000D+00  -5  6  0 0.00000000D+00 0.00000000D+00 0.00000000D+00 0.00000000D+00 0.00000000D+00
  <mgrwgt>
 0.7389242096D+05    1    2    0
 0.127537792510305D+03 0.000000000000000D+00 0.000000000000000D+00 0.127537792510305D+03
 0.127537792510305D+03 0.000000000000000D+00 0.000000000000000D+00 -.127537792510305D+03
 0.471665399039216D+02 -.303184996074392D+01 0.238429638448707D+02 -.405832902487706D+02
 0.868882253507417D+02 0.206281772338942D+01 -.337840918932893D+02 -.800246438454250D+02
 0.121020819765947D+03 0.969032237354504D+00 0.994112804841860D+01 0.120607934094196D+03
 0.000000000000000D+00 -.000000000000000D+00 -.000000000000000D+00 0.000000000000000D+00
 0.136000669852518D+03 0.000000000000000D+00 0.000000000000000D+00 0.136000669852518D+03
 0.127538575909826D+03 0.000000000000000D+00 0.000000000000000D+00 -.127538575909826D+03
 0.471663996275484D+02 -.300242611648370D+01 0.238464094535152D+02 -.405832902487706D+02
 0.868870613381485D+02 0.211702081509001D+01 -.337777445703607D+02 -.800246438454250D+02
 0.121022174368589D+03 0.104452904047615D+01 0.994996892030345D+01 0.120607934094196D+03
 0.846361042805729D+01 -.159123739082466D+00 -.186338034578785D-01 0.846209394269227D+01
0.746684986575D+00 0.000000000000D+00 0.000000000000D+00 0.367688648317D-03 0.386865455440D+00  6 21 2 -11 11 2 21 4 0.36467218D-02 0.11257793D+00 0.11574814D+04 0.99449794D+02 0.11726579D+04 0.14965959D+01  1  2  1  1  6  1       21 0.738924209567D+05
  </mgrwgt>
  </event>
</LesHouchesEvents>
