<LesHouchesEvents version="3.0">
  <!--
  <scalesfunctionalform>
    muR  FxFx merging scale
    muF1 FxFx merging scale
    muF2 FxFx merging scale
    QES  H_T/2 := sum_i mT(i)/2, i=final state
  </scalesfunctionalform>
PYTHIA8   
  -->
  <header>
       48
  </header>
  <init>
   2212   2212 0.65000000D+04 0.65000000D+04 -1 -1 306000 306000 -4   1
 0.20414127D+03 0.28752849D+01 0.13243562D+02     66
  </init>
  <event npLO=' -1 ' npNLO=' 1 '>
  6     66 -.13243562E+02 0.10483967E+02 0.75467711E-02 0.17582562E+00
        2 -1    0    0  502    0 0.00000000E+00 0.00000000E+00 0.20905795E+03 0.20905795E+03 0.00000000E+00 0.0000E+00 0.9000E+01
       21 -1    0    0  501  502 0.00000000E+00 0.00000000E+00 -.12484944E+02 0.12484944E+02 0.00000000E+00 0.0000E+00 0.9000E+01
       23  2    1    2    0    0 0.10053928E+02 -.29718867E+01 0.18668182E+03 0.20712939E+03 0.89121083E+02 0.0000E+00 0.0000E+00
      -13  1    3    3    0    0 0.15247647E+02 -.39376052E+02 0.49299463E+02 0.64910717E+02 0.00000000E+00 0.0000E+00 0.9000E+01
       13  1    3    3    0    0 -.51937197E+01 0.36404165E+02 0.13738236E+03 0.14221867E+03 0.00000000E+00 0.0000E+00 0.9000E+01
        2  1    1    2  501    0 -.10053928E+02 0.29718867E+01 0.98911828E+01 0.14413503E+02 0.00000000E+00 0.0000E+00 0.9000E+01
#aMCatNLO 1  0  0  2  1 0.38494836D+01 0.00000000D+00  -5  6  0 0.00000000D+00 0.00000000D+00 0.00000000D+00 0.00000000D+00 0.00000000D+00
  <mgrwgt>
 -.4500718630D+04   47    2    0
 0.510889094856688D+02 0.000000000000000D+00 0.000000000000000D+00 0.510889094856688D+02
 0.510889094856688D+02 0.000000000000000D+00 0.000000000000000D+00 -.510889094856688D+02
 0.458961104686843D+02 0.152476473661482D+02 -.393760516298179D+02 -.179857933935978D+02
 0.440591966287238D+02 -.519371972330026D+01 0.364041649407321D+02 0.242688042138941D+02
 0.122225118739295D+02 -.100539276428479D+02 0.297188668908580D+01 -.628301082029631D+01
 0.000000000000000D+00 -.000000000000000D+00 -.000000000000000D+00 -.000000000000000D+00
 0.511296840023356D+02 0.000000000000000D+00 0.000000000000000D+00 0.511296840023356D+02
 0.868111187429987D+03 0.000000000000000D+00 0.000000000000000D+00 -.868111187429987D+03
 0.451355444691332D+02 0.163246208742085D+02 -.380425467580874D+02 -.179857933935978D+02
 0.450344488329747D+02 -.413967433695290D+01 0.377092802914808D+02 0.242688042138941D+02
 0.120803065380088D+02 -.976640687198269D+01 0.332789391285031D+01 -.628301082029631D+01
 0.816990571592206D+03 -.241853966527293D+01 -.299462744624370D+01 -.816981503427651D+03
0.670005476789D-05 0.000000000000D+00 0.000000000000D+00 0.684437434060D-03 0.000000000000D+00  6 2 21 -13 13 2 21 2 0.32162761D-01 0.19207606D-02 0.20017533D+04 0.10991357D+03 0.25109913D+04 0.14879254D+01  1  2  2  2  6  2       21 0.299740298657D+01
0.768027749644D-06 0.325285875618D-06 0.147602481096D-07 0.684437434060D-03 0.000000000000D+00  6 2 21 -13 13 2 21 4 0.32162761D-01 0.19207606D-02 0.20017533D+04 0.10991357D+03 0.25109913D+04 0.14879254D+01  1  2  3  2  6  2       21 -.170983827118D+00
0.576414373553D-06 0.000000000000D+00 0.000000000000D+00 0.684437434060D-03 0.000000000000D+00  6 2 21 -13 13 2 21 4 0.32162761D-01 0.19207606D-02 0.20017533D+04 0.10991357D+03 0.25109913D+04 0.14879254D+01  1  2 15  2  6  2       21 0.570905066138D+00
0.104815593815D+00 0.000000000000D+00 0.000000000000D+00 0.683067252617D-03 0.000000000000D+00  6 2 21 -13 13 2 21 4 0.32162761D-01 0.32663929D-01 0.21855700D+04 0.11184000D+03 0.25161156D+04 0.14864353D+01  1  2 12  2  6  2       21 0.103898329237D+04
0.104815593815D+00 0.000000000000D+00 0.000000000000D+00 0.683067252617D-03 0.000000000000D+00  6 2 21 -13 13 2 21 4 0.32162761D-01 0.32663929D-01 0.21855700D+04 0.11184000D+03 0.25161156D+04 0.14864353D+01  1  2 12  2  6  2       21 0.103898329237D+04
-.258731830993D+01 0.000000000000D+00 -.435487917954D-03 0.684437434060D-03 0.000000000000D+00  6 2 21 -13 13 2 21 4 0.32162761D-01 0.32639572D-01 0.20017533D+04 0.10991357D+03 0.25109913D+04 0.14879254D+01  1  2  5  2  6  2       21 -.257865169501D+05
0.205122193384D+01 0.000000000000D+00 0.000000000000D+00 0.684437434060D-03 0.302881468764D+00  6 2 21 -13 13 2 21 4 0.32188430D-01 0.32637881D-01 0.21855700D+04 0.11184000D+03 0.25161156D+04 0.14864353D+01  1  2 11  2  6  2       21 0.203457352664D+05
0.463566570228D-01 0.000000000000D+00 0.000000000000D+00 0.683067252617D-03 0.000000000000D+00  6 2 -1 -13 13 2 -1 4 0.32162761D-01 0.32663929D-01 0.21855700D+04 0.11184000D+03 0.25161156D+04 0.14864353D+01  1  2 12  5  6  2       21 0.424396806203D+02
0.463566570228D-01 0.000000000000D+00 0.000000000000D+00 0.683067252617D-03 0.000000000000D+00  6 2 -3 -13 13 2 -3 4 0.32162761D-01 0.32663929D-01 0.21855700D+04 0.11184000D+03 0.25161156D+04 0.14864353D+01  1  2 12  5  6  2       21 0.282171652554D+02
0.463566570228D-01 0.000000000000D+00 0.000000000000D+00 0.683067252617D-03 0.000000000000D+00  6 2 -5 -13 13 2 -5 4 0.32162761D-01 0.32663929D-01 0.21855700D+04 0.11184000D+03 0.25161156D+04 0.14864353D+01  1  2 12  5  6  2       21 0.102664931180D+02
0.463566570228D-01 0.000000000000D+00 0.000000000000D+00 0.683067252617D-03 0.000000000000D+00  6 2 -1 -13 13 2 -1 4 0.32162761D-01 0.32663929D-01 0.21855700D+04 0.11184000D+03 0.25161156D+04 0.14864353D+01  1  2 12  5  6  2       21 0.424396806203D+02
0.463566570228D-01 0.000000000000D+00 0.000000000000D+00 0.683067252617D-03 0.000000000000D+00  6 2 -3 -13 13 2 -3 4 0.32162761D-01 0.32663929D-01 0.21855700D+04 0.11184000D+03 0.25161156D+04 0.14864353D+01  1  2 12  5  6  2       21 0.282171652554D+02
0.463566570228D-01 0.000000000000D+00 0.000000000000D+00 0.683067252617D-03 0.000000000000D+00  6 2 -5 -13 13 2 -5 4 0.32162761D-01 0.32663929D-01 0.21855700D+04 0.11184000D+03 0.25161156D+04 0.14864353D+01  1  2 12  5  6  2       21 0.102664931180D+02
-.114428135353D+01 0.000000000000D+00 -.192487129357D-03 0.684437434060D-03 0.000000000000D+00  6 2 -1 -13 13 2 -1 4 0.32162761D-01 0.32639572D-01 0.20017533D+04 0.10991357D+03 0.25109913D+04 0.14879254D+01  1  2  5  5  6  2       21 -.105304968115D+04
-.114428135353D+01 0.000000000000D+00 -.192487129357D-03 0.684437434060D-03 0.000000000000D+00  6 2 -3 -13 13 2 -3 4 0.32162761D-01 0.32639572D-01 0.20017533D+04 0.10991357D+03 0.25109913D+04 0.14879254D+01  1  2  5  5  6  2       21 -.700288739386D+03
-.114428135353D+01 0.000000000000D+00 -.192487129357D-03 0.684437434060D-03 0.000000000000D+00  6 2 -5 -13 13 2 -5 4 0.32162761D-01 0.32639572D-01 0.20017533D+04 0.10991357D+03 0.25109913D+04 0.14879254D+01  1  2  5  5  6  2       21 -.254758891774D+03
0.906356727038D+00 0.000000000000D+00 0.000000000000D+00 0.684437434060D-03 0.133916992672D+00  6 2 -1 -13 13 2 -1 4 0.32188430D-01 0.32637881D-01 0.21855700D+04 0.11184000D+03 0.25161156D+04 0.14864353D+01  1  2 11  5  6  2       21 0.830129581392D+03
0.906356727038D+00 0.000000000000D+00 0.000000000000D+00 0.684437434060D-03 0.133916992672D+00  6 2 -3 -13 13 2 -3 4 0.32188430D-01 0.32637881D-01 0.21855700D+04 0.11184000D+03 0.25161156D+04 0.14864353D+01  1  2 11  5  6  2       21 0.552065162645D+03
0.906356727038D+00 0.000000000000D+00 0.000000000000D+00 0.684437434060D-03 0.133916992672D+00  6 2 -5 -13 13 2 -5 4 0.32188430D-01 0.32637881D-01 0.21855700D+04 0.11184000D+03 0.25161156D+04 0.14864353D+01  1  2 11  5  6  2       21 0.200879303563D+03
0.463566570228D-01 0.000000000000D+00 0.000000000000D+00 0.683067252617D-03 0.000000000000D+00  6 2 1 -13 13 2 1 4 0.32162761D-01 0.32663929D-01 0.21855700D+04 0.11184000D+03 0.25161156D+04 0.14864353D+01  1  2 12  6  6  2       21 0.696394132536D+02
0.463566570228D-01 0.000000000000D+00 0.000000000000D+00 0.683067252617D-03 0.000000000000D+00  6 2 3 -13 13 2 3 4 0.32162761D-01 0.32663929D-01 0.21855700D+04 0.11184000D+03 0.25161156D+04 0.14864353D+01  1  2 12  6  6  2       21 0.283961791585D+02
0.463566570228D-01 0.000000000000D+00 0.000000000000D+00 0.683067252617D-03 0.000000000000D+00  6 2 5 -13 13 2 5 4 0.32162761D-01 0.32663929D-01 0.21855700D+04 0.11184000D+03 0.25161156D+04 0.14864353D+01  1  2 12  6  6  2       21 0.102386513873D+02
0.463566570228D-01 0.000000000000D+00 0.000000000000D+00 0.683067252617D-03 0.000000000000D+00  6 2 1 -13 13 2 1 4 0.32162761D-01 0.32663929D-01 0.21855700D+04 0.11184000D+03 0.25161156D+04 0.14864353D+01  1  2 12  6  6  2       21 0.696394132536D+02
0.463566570228D-01 0.000000000000D+00 0.000000000000D+00 0.683067252617D-03 0.000000000000D+00  6 2 3 -13 13 2 3 4 0.32162761D-01 0.32663929D-01 0.21855700D+04 0.11184000D+03 0.25161156D+04 0.14864353D+01  1  2 12  6  6  2       21 0.283961791585D+02
0.463566570228D-01 0.000000000000D+00 0.000000000000D+00 0.683067252617D-03 0.000000000000D+00  6 2 5 -13 13 2 5 4 0.32162761D-01 0.32663929D-01 0.21855700D+04 0.11184000D+03 0.25161156D+04 0.14864353D+01  1  2 12  6  6  2       21 0.102386513873D+02
-.114428135353D+01 0.000000000000D+00 -.192487129357D-03 0.684437434060D-03 0.000000000000D+00  6 2 1 -13 13 2 1 4 0.32162761D-01 0.32639572D-01 0.20017533D+04 0.10991357D+03 0.25109913D+04 0.14879254D+01  1  2  5  6  6  2       21 -.172745524130D+04
-.114428135353D+01 0.000000000000D+00 -.192487129357D-03 0.684437434060D-03 0.000000000000D+00  6 2 3 -13 13 2 3 4 0.32162761D-01 0.32639572D-01 0.20017533D+04 0.10991357D+03 0.25109913D+04 0.14879254D+01  1  2  5  6  6  2       21 -.704713674205D+03
-.114428135353D+01 0.000000000000D+00 -.192487129357D-03 0.684437434060D-03 0.000000000000D+00  6 2 5 -13 13 2 5 4 0.32162761D-01 0.32639572D-01 0.20017533D+04 0.10991357D+03 0.25109913D+04 0.14879254D+01  1  2  5  6  6  2       21 -.254068365395D+03
0.905913551455D+00 0.000000000000D+00 0.000000000000D+00 0.684437434060D-03 0.133851512117D+00  6 2 1 -13 13 2 1 4 0.32188430D-01 0.32637881D-01 0.21855700D+04 0.11184000D+03 0.25161156D+04 0.14864353D+01  1  2 11  6  6  2       21 0.136107909331D+04
0.905913551455D+00 0.000000000000D+00 0.000000000000D+00 0.684437434060D-03 0.133851512117D+00  6 2 3 -13 13 2 3 4 0.32188430D-01 0.32637881D-01 0.21855700D+04 0.11184000D+03 0.25161156D+04 0.14864353D+01  1  2 11  6  6  2       21 0.555282876848D+03
0.905913551455D+00 0.000000000000D+00 0.000000000000D+00 0.684437434060D-03 0.133851512117D+00  6 2 5 -13 13 2 5 4 0.32188430D-01 0.32637881D-01 0.21855700D+04 0.11184000D+03 0.25161156D+04 0.14864353D+01  1  2 11  6  6  2       21 0.200236933654D+03
0.463566570228D-01 0.000000000000D+00 0.000000000000D+00 0.683067252617D-03 0.000000000000D+00  6 2 -2 -13 13 2 -2 4 0.32162761D-01 0.32663929D-01 0.21855700D+04 0.11184000D+03 0.25161156D+04 0.14864353D+01  1  2 12  7  6  2       21 0.376328465631D+02
0.463566570228D-01 0.000000000000D+00 0.000000000000D+00 0.683067252617D-03 0.000000000000D+00  6 2 -2 -13 13 2 -2 4 0.32162761D-01 0.32663929D-01 0.21855700D+04 0.11184000D+03 0.25161156D+04 0.14864353D+01  1  2 12  7  6  2       21 0.376328465631D+02
-.114428135353D+01 0.000000000000D+00 -.192487129357D-03 0.684437434060D-03 0.000000000000D+00  6 2 -2 -13 13 2 -2 4 0.32162761D-01 0.32639572D-01 0.20017533D+04 0.10991357D+03 0.25109913D+04 0.14879254D+01  1  2  5  7  6  2       21 -.933847417308D+03
0.906996656410D+00 0.000000000000D+00 0.000000000000D+00 0.684437434060D-03 0.134020657180D+00  6 2 -2 -13 13 2 -2 4 0.32188430D-01 0.32637881D-01 0.21855700D+04 0.11184000D+03 0.25161156D+04 0.14864353D+01  1  2 11  7  6  2       21 0.736687173257D+03
0.463566681491D-01 0.000000000000D+00 0.000000000000D+00 0.683067252617D-03 0.000000000000D+00  6 2 2 -13 13 2 2 4 0.32162761D-01 0.32663929D-01 0.21855700D+04 0.11184000D+03 0.25161156D+04 0.14864353D+01  1  2 12  8  6  2       21 0.898305808233D+02
0.463566681491D-01 0.000000000000D+00 0.000000000000D+00 0.683067252617D-03 0.000000000000D+00  6 2 2 -13 13 2 2 4 0.32162761D-01 0.32663929D-01 0.21855700D+04 0.11184000D+03 0.25161156D+04 0.14864353D+01  1  2 12  8  6  2       21 0.898305808233D+02
-.114428162818D+01 0.000000000000D+00 -.192487175557D-03 0.684437355040D-03 0.000000000000D+00  6 2 2 -13 13 2 2 4 0.32162761D-01 0.32639572D-01 0.20017533D+04 0.10991368D+03 0.25109916D+04 0.14879253D+01  1  2  5  8  6  2       21 -.222803801357D+04
0.905110329657D+00 0.000000000000D+00 0.000000000000D+00 0.684437355040D-03 0.668706114059D-01  6 2 2 -13 13 2 2 4 0.32188430D-01 0.32637881D-01 0.21855700D+04 0.11184000D+03 0.25161156D+04 0.14864353D+01  1  2 11  8  6  2       21 0.175393441215D+04
0.463566570228D-01 0.000000000000D+00 0.000000000000D+00 0.683067252617D-03 0.000000000000D+00  6 2 -4 -13 13 2 -4 4 0.32162761D-01 0.32663929D-01 0.21855700D+04 0.11184000D+03 0.25161156D+04 0.14864353D+01  1  2 12  9  6  2       21 0.167232072365D+02
0.463566570228D-01 0.000000000000D+00 0.000000000000D+00 0.683067252617D-03 0.000000000000D+00  6 2 -4 -13 13 2 -4 4 0.32162761D-01 0.32663929D-01 0.21855700D+04 0.11184000D+03 0.25161156D+04 0.14864353D+01  1  2 12  9  6  2       21 0.167232072365D+02
-.114428135353D+01 0.000000000000D+00 -.192487129357D-03 0.684437434060D-03 0.000000000000D+00  6 2 -4 -13 13 2 -4 4 0.32162761D-01 0.32639572D-01 0.20017533D+04 0.10991357D+03 0.25109913D+04 0.14879254D+01  1  2  5  9  6  2       21 -.415021204480D+03
0.905900229973D+00 0.000000000000D+00 0.000000000000D+00 0.684437434060D-03 0.133849543827D+00  6 2 -4 -13 13 2 -4 4 0.32188430D-01 0.32637881D-01 0.21855700D+04 0.11184000D+03 0.25161156D+04 0.14864353D+01  1  2 11  9  6  2       21 0.327040239884D+03
0.463566570228D-01 0.000000000000D+00 0.000000000000D+00 0.683067252617D-03 0.000000000000D+00  6 2 4 -13 13 2 4 4 0.32162761D-01 0.32663929D-01 0.21855700D+04 0.11184000D+03 0.25161156D+04 0.14864353D+01  1  2 12 10  6  2       21 0.166384962263D+02
0.463566570228D-01 0.000000000000D+00 0.000000000000D+00 0.683067252617D-03 0.000000000000D+00  6 2 4 -13 13 2 4 4 0.32162761D-01 0.32663929D-01 0.21855700D+04 0.11184000D+03 0.25161156D+04 0.14864353D+01  1  2 12 10  6  2       21 0.166384962263D+02
-.114428135353D+01 0.000000000000D+00 -.192487129357D-03 0.684437434060D-03 0.000000000000D+00  6 2 4 -13 13 2 4 4 0.32162761D-01 0.32639572D-01 0.20017533D+04 0.10991357D+03 0.25109913D+04 0.14879254D+01  1  2  5 10  6  2       21 -.412919928519D+03
0.906165977872D+00 0.000000000000D+00 0.000000000000D+00 0.684437434060D-03 0.133888808896D+00  6 2 4 -13 13 2 4 4 0.32188430D-01 0.32637881D-01 0.21855700D+04 0.11184000D+03 0.25161156D+04 0.14864353D+01  1  2 11 10  6  2       21 0.325480097788D+03
  </mgrwgt>
  </event>
  <event npLO=' -1 ' npNLO=' 1 '>
  6     66 -.13243562E+02 0.11315566E+02 0.75467711E-02 0.17222480E+00
        2 -1    0    0  502    0 0.00000000E+00 0.00000000E+00 0.46066782E+03 0.46066782E+03 0.00000000E+00 0.0000E+00 0.9000E+01
       21 -1    0    0  501  502 0.00000000E+00 0.00000000E+00 -.61505512E+01 0.61505512E+01 0.00000000E+00 0.0000E+00 0.9000E+01
       23  2    1    2    0    0 -.10038764E+02 0.52216138E+01 0.43037719E+03 0.44015781E+03 0.91576915E+02 0.0000E+00 0.0000E+00
      -13  1    3    3    0    0 -.43800298E+02 0.27419084E+02 0.25555814E+03 0.26073020E+03 0.00000000E+00 0.0000E+00 0.9000E+01
       13  1    3    3    0    0 0.33761534E+02 -.22197471E+02 0.17481905E+03 0.17942761E+03 0.00000000E+00 0.0000E+00 0.9000E+01
        2  1    1    2  501    0 0.10038764E+02 -.52216138E+01 0.24140079E+02 0.26660560E+02 0.00000000E+00 0.0000E+00 0.9000E+01
#aMCatNLO 1  0  0  5  2 0.18208708D+01 0.00000000D+00  -5  6  0 0.00000000D+00 0.00000000D+00 0.00000000D+00 0.00000000D+00 0.00000000D+00
  <mgrwgt>
 -.8941782283D+04    8    2    0
 0.532293245215620D+02 0.000000000000000D+00 0.000000000000000D+00 0.532293245215620D+02
 0.532293245215620D+02 -.000000000000000D+00 -.000000000000000D+00 -.532293245215620D+02
 0.522086062617725D+02 -.438002981628459D+02 0.274190843576660D+02 0.744756749749763D+01
 0.404084590105211D+02 0.337615341244195D+02 -.221974705169845D+02 0.524095237748794D+00
 0.138415837708305D+02 0.100387640384264D+02 -.522161384068157D+01 -.797166273524644D+01
 0.000000000000000D+00 0.000000000000000D+00 0.000000000000000D+00 -.000000000000000D+00
 0.532293245215620D+02 0.000000000000000D+00 0.000000000000000D+00 0.532293245215620D+02
 0.532293245215620D+02 -.000000000000000D+00 -.000000000000000D+00 -.532293245215620D+02
 0.519774474571044D+02 -.436115463599243D+02 0.273209060338389D+02 0.729768194308069D+01
 0.405716215272897D+02 0.339082441269261D+02 -.222737810046822D+02 0.407594575377131D+00
 0.896980587947689D+01 0.730260182201745D+01 -.378691793694592D+01 -.357612593226284D+01
 0.493977417925316D+01 0.240070041098082D+01 -.126020709221079D+01 -.412915058619499D+01
0.350958553334D-03 0.000000000000D+00 0.000000000000D+00 0.209093496315D-02 0.000000000000D+00  6 2 21 -13 13 2 21 2 0.70871972D-01 0.94623864D-03 0.26726472D+04 0.12804203D+03 0.26826665D+04 0.14749866D+01  1  2  2  3  6  5        2 0.191378951386D+03
0.436589182731D-04 0.170389443493D-04 0.773163131177D-06 0.209093496315D-02 0.000000000000D+00  6 2 21 -13 13 2 21 4 0.70871972D-01 0.94623864D-03 0.26726472D+04 0.12804203D+03 0.26826665D+04 0.14749866D+01  1  2  3  3  6  5        2 -.962186215730D+01
0.344679967659D-04 0.000000000000D+00 0.000000000000D+00 0.209093496315D-02 0.000000000000D+00  6 2 21 -13 13 2 21 4 0.70871972D-01 0.94623864D-03 0.26726472D+04 0.12804203D+03 0.26826665D+04 0.14749866D+01  1  2 15  3  6  5        2 0.408912657975D+02
0.914048228737D-06 0.000000000000D+00 0.000000000000D+00 0.208003145031D-02 0.000000000000D+00  6 2 21 -13 13 2 21 4 0.70871972D-01 0.94623864D-03 0.26506864D+04 0.13410513D+03 0.26940321D+04 0.14711358D+01  1  2 12  3  6  5        2 0.107355590063D+01
-.149091806788D-01 0.000000000000D+00 0.000000000000D+00 0.209093496315D-02 0.000000000000D+00  6 2 21 -13 13 2 21 4 0.70871972D-01 0.94623864D-03 0.26726472D+04 0.12804203D+03 0.26826665D+04 0.14749866D+01  1  2  4  3  6  5        2 -.176875747697D+05
-.134048485359D-02 0.000000000000D+00 0.000000000000D+00 0.209093496315D-02 0.000000000000D+00  6 2 21 -13 13 2 21 4 0.70871972D-01 0.94623864D-03 0.26726472D+04 0.12804203D+03 0.26826665D+04 0.14749866D+01  1  2  5  3  6  5        2 -.159029034435D+04
0.233905604396D-02 0.000000000000D+00 -.000000000000D+00 0.209093496315D-02 0.000000000000D+00  6 2 21 -13 13 2 21 4 0.70871972D-01 0.94623864D-03 0.26726472D+04 0.12804203D+03 0.26826665D+04 0.14749866D+01  1  2  6  3  6  5        2 0.277494984865D+04
0.624722717220D-02 0.000000000000D+00 0.000000000000D+00 0.209093496315D-02 0.161619730441D-01  6 2 21 -13 13 2 21 4 0.70871972D-01 0.94623864D-03 0.26506864D+04 0.13410513D+03 0.26940321D+04 0.14711358D+01  1  2 11  3  6  5        2 0.733741107139D+04
  </mgrwgt>
  </event>
  <event npLO=' -1 ' npNLO=' 1 '>
  6     66 0.13243562E+02 0.19840411E+02 0.75467711E-02 0.15483699E+00
        2 -1    0    0  502    0 0.00000000E+00 0.00000000E+00 0.43161627E+03 0.43161627E+03 0.00000000E+00 0.0000E+00 0.9000E+01
       21 -1    0    0  501  502 0.00000000E+00 0.00000000E+00 -.15410078E+02 0.15410078E+02 0.00000000E+00 0.0000E+00 0.9000E+01
       23  2    1    2    0    0 0.22889421E+01 0.19707934E+02 0.13154080E+03 0.16167038E+03 0.91873220E+02 0.0000E+00 0.0000E+00
      -11  1    3    3    0    0 -.81967219E+01 0.49124897E+02 0.11712439E+03 0.12727359E+03 0.00000000E+00 0.0000E+00 0.9000E+01
       11  1    3    3    0    0 0.10485664E+02 -.29416962E+02 0.14416403E+02 0.34396795E+02 0.00000000E+00 0.0000E+00 0.9000E+01
        2  1    1    2  501    0 -.22889421E+01 -.19707934E+02 0.28466539E+03 0.28535597E+03 0.00000000E+00 0.0000E+00 0.9000E+01
#aMCatNLO 1  0  0  5  2 0.26499535D+01 0.00000000D+00  -5  6  0 0.00000000D+00 0.00000000D+00 0.00000000D+00 0.00000000D+00 0.00000000D+00
  <mgrwgt>
 0.6510646580D+03    8    2    0
 0.815551378122194D+02 0.000000000000000D+00 0.000000000000000D+00 0.815551378122194D+02
 0.815551378122194D+02 -.000000000000000D+00 -.000000000000000D+00 -.815551378122194D+02
 0.499462577034455D+02 -.819672186845269D+01 0.491248966520881D+02 -.376655520494229D+01
 0.574830576943090D+02 0.104856640055988D+02 -.294169624177503D+02 -.482596632226294D+02
 0.556809602266842D+02 -.228894213714607D+01 -.197079342343378D+02 0.520262184275717D+02
 0.000000000000000D+00 0.000000000000000D+00 0.000000000000000D+00 0.000000000000000D+00
 0.815551378122194D+02 0.000000000000000D+00 0.000000000000000D+00 0.815551378122194D+02
 0.815551378122194D+02 -.000000000000000D+00 -.000000000000000D+00 -.815551378122194D+02
 0.498987504653375D+02 -.820147495580685D+01 0.490839722741995D+02 -.365852051202469D+01
 0.574018919952220D+02 0.104801949469891D+02 -.294640513527010D+02 -.481353549523593D+02
 0.439550032654370D+02 -.230112756866975D+01 -.179476879026081D+02 0.400578035210102D+02
 0.118546298984423D+02 0.224075774874463D-01 -.167223301889037D+01 0.117360719433738D+02
0.115483493937D-03 0.000000000000D+00 0.000000000000D+00 0.251797615605D-03 0.000000000000D+00  6 2 21 -11 11 2 21 2 0.66402503D-01 0.23707813D-02 0.25439085D+04 0.39364232D+03 0.32394049D+04 0.13895352D+01  1  2  2  3  6  5        2 0.157539402510D+02
-.131582501793D-04 0.560669289222D-05 0.254410610378D-06 0.251797615605D-03 0.000000000000D+00  6 2 21 -11 11 2 21 4 0.66402503D-01 0.23707813D-02 0.25439085D+04 0.39364232D+03 0.32394049D+04 0.13895352D+01  1  2  3  3  6  5        2 -.620531679047D+01
0.851920974132D-05 0.000000000000D+00 0.000000000000D+00 0.251797615605D-03 0.000000000000D+00  6 2 21 -11 11 2 21 4 0.66402503D-01 0.23707813D-02 0.25439085D+04 0.39364232D+03 0.32394049D+04 0.13895352D+01  1  2 15  3  6  5        2 0.224392163318D+01
0.250551742939D-04 0.000000000000D+00 0.000000000000D+00 0.253744766521D-03 0.000000000000D+00  6 2 21 -11 11 2 21 4 0.66402503D-01 0.23707813D-02 0.25403549D+04 0.36451187D+03 0.31881958D+04 0.13948975D+01  1  2 12  3  6  5        2 0.669432088259D+01
-.215708247424D-02 0.000000000000D+00 0.000000000000D+00 0.251797615605D-03 0.000000000000D+00  6 2 21 -11 11 2 21 4 0.66402503D-01 0.23707813D-02 0.25439085D+04 0.39364232D+03 0.32394049D+04 0.13895352D+01  1  2  4  3  6  5        2 -.568165848182D+03
-.343580758615D-02 0.000000000000D+00 0.000000000000D+00 0.251797615605D-03 0.000000000000D+00  6 2 21 -11 11 2 21 4 0.66402503D-01 0.23707813D-02 0.25439085D+04 0.39364232D+03 0.32394049D+04 0.13895352D+01  1  2  5  3  6  5        2 -.904976306972D+03
0.424298951790D-02 0.000000000000D+00 -.000000000000D+00 0.251797615605D-03 0.000000000000D+00  6 2 21 -11 11 2 21 4 0.66402503D-01 0.23707813D-02 0.25439085D+04 0.39364232D+03 0.32394049D+04 0.13895352D+01  1  2  6  3  6  5        2 0.111758440720D+04
0.369834500224D-02 0.000000000000D+00 0.000000000000D+00 0.251797615605D-03 0.109326565920D-02  6 2 21 -11 11 2 21 4 0.66402503D-01 0.23707813D-02 0.25403549D+04 0.36451187D+03 0.31881958D+04 0.13948975D+01  1  2 11  3  6  5        2 0.988135539952D+03
  </mgrwgt>
  </event>
  <event npLO=' -1 ' npNLO=' 1 '>
  6     66 -.13243562E+02 0.17882020E+02 0.75467711E-02 0.12845075E+00
        2 -1    0    0  502    0 0.00000000E+00 0.00000000E+00 0.98171313E+03 0.98171313E+03 0.00000000E+00 0.0000E+00 0.9000E+01
       21 -1    0    0  501  502 0.00000000E+00 0.00000000E+00 -.40141367E+01 0.40141367E+01 0.00000000E+00 0.0000E+00 0.9000E+01
       23  2    1    2    0    0 -.17605123E+02 -.31346891E+01 0.89574300E+03 0.90184311E+03 0.10317805E+03 0.0000E+00 0.0000E+00
      -13  1    3    3    0    0 -.13087272E+02 0.31736842E+02 0.10819744E+03 0.11351295E+03 0.00000000E+00 0.0000E+00 0.9000E+01
       13  1    3    3    0    0 -.45178514E+01 -.34871531E+02 0.78754556E+03 0.78833016E+03 0.00000000E+00 0.0000E+00 0.9000E+01
        2  1    1    2  501    0 0.17605123E+02 0.31346891E+01 0.81955994E+02 0.83884156E+02 0.00000000E+00 0.0000E+00 0.9000E+01
#aMCatNLO 1  0  0  2  2 0.53657194D+02 0.00000000D+00  -5  6  0 0.00000000D+00 0.00000000D+00 0.00000000D+00 0.00000000D+00 0.00000000D+00
  <mgrwgt>
 -.1422570372D+04   14    2    0
 0.627752394334002D+02 0.000000000000000D+00 0.000000000000000D+00 0.627752394334002D+02
 0.627752394334002D+02 0.000000000000000D+00 0.000000000000000D+00 -.627752394334002D+02
 0.486519990007780D+02 -.130872716001346D+02 0.317368418374854D+02 -.344748197822476D+02
 0.565193721624342D+02 -.451785143870076D+01 -.348715308892541D+02 0.442493478082262D+02
 0.203791077035882D+02 0.176051230388353D+02 0.313468905176875D+01 -.977452802597857D+01
 0.000000000000000D+00 0.000000000000000D+00 0.000000000000000D+00 -.000000000000000D+00
 0.692114016538085D+02 0.000000000000000D+00 0.000000000000000D+00 0.692114016538085D+02
 0.756930276954665D+03 0.000000000000000D+00 0.000000000000000D+00 -.756930276954665D+03
 0.441585972574234D+02 -.227876362878212D+02 0.155625237393827D+02 -.344748197822476D+02
 0.750512349330595D+02 -.182693294214083D+02 -.578006460691919D+02 0.442493478082262D+02
 0.171564535609808D+02 0.136819865899501D+02 -.340672036009364D+01 -.977452802597857D+01
 0.689775392857010D+03 0.273749791192794D+02 0.456448426899028D+02 -.687718875300857D+03
0.869389540062D-04 0.000000000000D+00 0.000000000000D+00 0.414536722281D-04 0.000000000000D+00  6 2 21 -13 13 2 21 2 0.15103279D+00 0.61755949D-03 0.19085686D+04 0.31976663D+03 0.37575789D+04 0.14041847D+01  1  2  2  2  6  2       21 0.350095332452D+02
-.724391176817D-06 0.422086307634D-05 0.191526871940D-06 0.414536722281D-04 0.000000000000D+00  6 2 21 -13 13 2 21 4 0.15103279D+00 0.61755949D-03 0.19085686D+04 0.31976663D+03 0.37575789D+04 0.14041847D+01  1  2  3  2  6  2       21 -.645942014158D+01
0.687745859746D-05 0.000000000000D+00 0.000000000000D+00 0.414536722281D-04 0.000000000000D+00  6 2 21 -13 13 2 21 4 0.15103279D+00 0.61755949D-03 0.19085686D+04 0.31976663D+03 0.37575789D+04 0.14041847D+01  1  2 15  2  6  2       21 0.546070066122D+01
-.709297714051D-01 0.000000000000D+00 -.339893703030D-02 0.414536722281D-04 0.000000000000D+00  6 2 21 -13 13 2 21 4 0.15103279D+00 0.81860540D-02 0.19085686D+04 0.31976663D+03 0.37575789D+04 0.14041847D+01  1  2  5  2  6  2       21 -.117201554677D+04
-.311423720302D-01 0.000000000000D+00 -.149680385705D-02 0.414536722281D-04 0.000000000000D+00  6 2 -1 -13 13 2 -1 4 0.15103279D+00 0.81860540D-02 0.19085686D+04 0.31976663D+03 0.37575789D+04 0.14041847D+01  1  2  5  5  6  2       21 -.351855846747D+02
-.311423720302D-01 0.000000000000D+00 -.149680385705D-02 0.414536722281D-04 0.000000000000D+00  6 2 -3 -13 13 2 -3 4 0.15103279D+00 0.81860540D-02 0.19085686D+04 0.31976663D+03 0.37575789D+04 0.14041847D+01  1  2  5  5  6  2       21 -.300906835871D+02
-.311423720302D-01 0.000000000000D+00 -.149680385705D-02 0.414536722281D-04 0.000000000000D+00  6 2 -5 -13 13 2 -5 4 0.15103279D+00 0.81860540D-02 0.19085686D+04 0.31976663D+03 0.37575789D+04 0.14041847D+01  1  2  5  5  6  2       21 -.134790968914D+02
-.311423720302D-01 0.000000000000D+00 -.149680385705D-02 0.414536722281D-04 0.000000000000D+00  6 2 1 -13 13 2 1 4 0.15103279D+00 0.81860540D-02 0.19085686D+04 0.31976663D+03 0.37575789D+04 0.14041847D+01  1  2  5  6  6  2       21 -.412498559460D+02
-.311423720302D-01 0.000000000000D+00 -.149680385705D-02 0.414536722281D-04 0.000000000000D+00  6 2 3 -13 13 2 3 4 0.15103279D+00 0.81860540D-02 0.19085686D+04 0.31976663D+03 0.37575789D+04 0.14041847D+01  1  2  5  6  6  2       21 -.300984626706D+02
-.311423720302D-01 0.000000000000D+00 -.149680385705D-02 0.414536722281D-04 0.000000000000D+00  6 2 5 -13 13 2 5 4 0.15103279D+00 0.81860540D-02 0.19085686D+04 0.31976663D+03 0.37575789D+04 0.14041847D+01  1  2  5  6  6  2       21 -.134698781199D+02
-.311423720302D-01 0.000000000000D+00 -.149680385705D-02 0.414536722281D-04 0.000000000000D+00  6 2 -2 -13 13 2 -2 4 0.15103279D+00 0.81860540D-02 0.19085686D+04 0.31976663D+03 0.37575789D+04 0.14041847D+01  1  2  5  7  6  2       21 -.342094348905D+02
-.311423768826D-01 0.000000000000D+00 -.149680409027D-02 0.414536679959D-04 0.000000000000D+00  6 2 2 -13 13 2 2 4 0.15103279D+00 0.81860540D-02 0.19085686D+04 0.31976695D+03 0.37575795D+04 0.14041846D+01  1  2  5  8  6  2       21 -.455517943315D+02
-.311423720302D-01 0.000000000000D+00 -.149680385705D-02 0.414536722281D-04 0.000000000000D+00  6 2 -4 -13 13 2 -4 4 0.15103279D+00 0.81860540D-02 0.19085686D+04 0.31976663D+03 0.37575789D+04 0.14041847D+01  1  2  5  9  6  2       21 -.206291005571D+02
-.311423720302D-01 0.000000000000D+00 -.149680385705D-02 0.414536722281D-04 0.000000000000D+00  6 2 4 -13 13 2 4 4 0.15103279D+00 0.81860540D-02 0.19085686D+04 0.31976663D+03 0.37575789D+04 0.14041847D+01  1  2  5 10  6  2       21 -.206017473653D+02
  </mgrwgt>
  </event>
  <event npLO=' -1 ' npNLO=' 1 '>
  6     66 0.13243562E+02 0.54825484E+02 0.75467711E-02 0.12867358E+00
        2 -1    0    0  502    0 0.00000000E+00 0.00000000E+00 0.17221820E+04 0.17221820E+04 0.00000000E+00 0.0000E+00 0.9000E+01
       21 -1    0    0  501  502 0.00000000E+00 0.00000000E+00 -.25847544E+02 0.25847544E+02 0.00000000E+00 0.0000E+00 0.9000E+01
       23  2    1    2    0    0 0.54688703E+02 0.38703237E+01 0.16896503E+04 0.16927981E+04 0.87415237E+02 0.0000E+00 0.0000E+00
      -13  1    3    3    0    0 0.58254948E+02 0.27311386E+02 0.15343320E+04 0.15356804E+04 0.00000000E+00 0.0000E+00 0.9000E+01
       13  1    3    3    0    0 -.35662451E+01 -.23441062E+02 0.15531828E+03 0.15711769E+03 0.00000000E+00 0.0000E+00 0.9000E+01
        2  1    1    2  501    0 -.54688703E+02 -.38703237E+01 0.66841442E+01 0.55231435E+02 0.00000000E+00 0.0000E+00 0.9000E+01
#aMCatNLO 1  0  0  2  5 0.89025525D+01 0.00000000D+00  -5  6  0 0.00000000D+00 0.00000000D+00 0.00000000D+00 0.00000000D+00 0.00000000D+00
  <mgrwgt>
 0.6550920676D+03   49    2    0
 0.210983821890662D+03 0.000000000000000D+00 0.000000000000000D+00 0.210983821890662D+03
 0.210983821890662D+03 0.000000000000000D+00 0.000000000000000D+00 -.210983821890662D+03
 0.193556163149617D+03 0.582549484032654D+02 0.273113861898881D+02 0.182549821868225D+03
 0.264821724246718D+02 -.356624513068670D+01 -.234410624563404D+02 0.117942334602910D+02
 0.201929308207035D+03 -.546887032725787D+02 -.387032373354769D+01 -.194344055328516D+03
 0.000000000000000D+00 0.000000000000000D+00 -.000000000000000D+00 -.000000000000000D+00
 0.211639672384103D+03 0.000000000000000D+00 0.000000000000000D+00 0.211639672384103D+03
 0.242816479540010D+03 0.000000000000000D+00 0.000000000000000D+00 -.242816479540010D+03
 0.193324513030200D+03 0.558322352305527D+02 0.305399964538859D+02 0.182549821868225D+03
 0.261413234151639D+02 -.389578249043353D+01 -.230019070028461D+02 0.117942334602910D+02
 0.202593686229616D+03 -.572218956691702D+02 -.494484172994790D+00 -.194344055328516D+03
 0.323966292491332D+02 0.528544292905108D+01 -.704360527804497D+01 -.311768071559073D+02
0.222211084117D-02 0.000000000000D+00 0.000000000000D+00 0.109880665820D-02 0.000000000000D+00  6 2 21 -13 13 2 21 2 0.26495107D+00 0.39765452D-02 0.51033603D+04 0.30058337D+04 0.62418715D+04 0.12675240D+01  1  2  2  2  6  2       21 0.191254679106D+02
0.127395287266D-03 0.107882889877D-03 0.489531928902D-05 0.109880665820D-02 0.000000000000D+00  6 2 21 -13 13 2 21 4 0.26495107D+00 0.39765452D-02 0.51033603D+04 0.30058337D+04 0.62418715D+04 0.12675240D+01  1  2  3  2  6  2       21 0.985574319696D+00
0.218351543553D-03 0.000000000000D+00 0.000000000000D+00 0.109880665820D-02 0.000000000000D+00  6 2 21 -13 13 2 21 4 0.26495107D+00 0.39765452D-02 0.51033603D+04 0.30058337D+04 0.62418715D+04 0.12675240D+01  1  2 15  2  6  2       21 0.301936052634D+01
0.477129504400D-01 0.000000000000D+00 0.000000000000D+00 0.110588041532D-02 0.000000000000D+00  6 2 21 -13 13 2 21 4 0.26495107D+00 0.45907416D-02 0.58521526D+04 0.27808504D+04 0.59925641D+04 0.12715974D+01  1  2 12  2  6  2       21 0.533423633471D+03
0.477129504400D-01 0.000000000000D+00 0.000000000000D+00 0.110588041532D-02 0.000000000000D+00  6 2 21 -13 13 2 21 4 0.26495107D+00 0.45907416D-02 0.58521526D+04 0.27808504D+04 0.59925641D+04 0.12715974D+01  1  2 12  2  6  2       21 0.533423633471D+03
-.481289746986D-01 0.000000000000D+00 0.000000000000D+00 0.109880665820D-02 0.000000000000D+00  6 2 21 -13 13 2 21 4 0.26495107D+00 0.39765452D-02 0.51033603D+04 0.30058337D+04 0.62418715D+04 0.12675240D+01  1  2  4  2  6  2       21 -.665526444253D+03
-.996887998485D-01 0.000000000000D+00 -.410806564936D-02 0.109880665820D-02 0.000000000000D+00  6 2 21 -13 13 2 21 4 0.26495107D+00 0.45890983D-02 0.51033603D+04 0.30058337D+04 0.62418715D+04 0.12675240D+01  1  2  5  2  6  2       21 -.111002882737D+04
0.961644197390D-01 0.000000000000D+00 0.394420097567D-02 0.109880665820D-02 0.000000000000D+00  6 2 21 -13 13 2 21 4 0.26495107D+00 0.39765452D-02 0.51033603D+04 0.30058337D+04 0.62418715D+04 0.12675240D+01  1  2  6  2  6  2       21 0.134074294063D+04
0.145270911189D-04 0.000000000000D+00 0.000000000000D+00 0.109880665820D-02 0.189611347255D-03  6 2 21 -13 13 2 21 4 0.26577468D+00 0.45765153D-02 0.58521526D+04 0.27808504D+04 0.59925641D+04 0.12715974D+01  1  2 11  2  6  2       21 0.162180749577D+00
0.186257652144D-02 0.000000000000D+00 0.000000000000D+00 0.110588041532D-02 0.000000000000D+00  6 2 -1 -13 13 2 -1 4 0.26495107D+00 0.45907416D-02 0.58521526D+04 0.27808504D+04 0.59925641D+04 0.12715974D+01  1  2 12  5  6  2       21 0.129606309334D+01
0.186257652144D-02 0.000000000000D+00 0.000000000000D+00 0.110588041532D-02 0.000000000000D+00  6 2 -3 -13 13 2 -3 4 0.26495107D+00 0.45907416D-02 0.58521526D+04 0.27808504D+04 0.59925641D+04 0.12715974D+01  1  2 12  5  6  2       21 0.116046760299D+01
0.186257652144D-02 0.000000000000D+00 0.000000000000D+00 0.110588041532D-02 0.000000000000D+00  6 2 -5 -13 13 2 -5 4 0.26495107D+00 0.45907416D-02 0.58521526D+04 0.27808504D+04 0.59925641D+04 0.12715974D+01  1  2 12  5  6  2       21 0.580236973661D+00
0.186257652144D-02 0.000000000000D+00 0.000000000000D+00 0.110588041532D-02 0.000000000000D+00  6 2 -1 -13 13 2 -1 4 0.26495107D+00 0.45907416D-02 0.58521526D+04 0.27808504D+04 0.59925641D+04 0.12715974D+01  1  2 12  5  6  2       21 0.129606309334D+01
0.186257652144D-02 0.000000000000D+00 0.000000000000D+00 0.110588041532D-02 0.000000000000D+00  6 2 -3 -13 13 2 -3 4 0.26495107D+00 0.45907416D-02 0.58521526D+04 0.27808504D+04 0.59925641D+04 0.12715974D+01  1  2 12  5  6  2       21 0.116046760299D+01
0.186257652144D-02 0.000000000000D+00 0.000000000000D+00 0.110588041532D-02 0.000000000000D+00  6 2 -5 -13 13 2 -5 4 0.26495107D+00 0.45907416D-02 0.58521526D+04 0.27808504D+04 0.59925641D+04 0.12715974D+01  1  2 12  5  6  2       21 0.580236973661D+00
-.377922063788D-02 0.000000000000D+00 -.158589878939D-03 0.109880665820D-02 0.000000000000D+00  6 2 -1 -13 13 2 -1 4 0.26495107D+00 0.45890983D-02 0.51033603D+04 0.30058337D+04 0.62418715D+04 0.12675240D+01  1  2  5  5  6  2       21 -.261990520300D+01
-.377922063788D-02 0.000000000000D+00 -.158589878939D-03 0.109880665820D-02 0.000000000000D+00  6 2 -3 -13 13 2 -3 4 0.26495107D+00 0.45890983D-02 0.51033603D+04 0.30058337D+04 0.62418715D+04 0.12675240D+01  1  2  5  5  6  2       21 -.234639728998D+01
-.377922063788D-02 0.000000000000D+00 -.158589878939D-03 0.109880665820D-02 0.000000000000D+00  6 2 -5 -13 13 2 -5 4 0.26495107D+00 0.45890983D-02 0.51033603D+04 0.30058337D+04 0.62418715D+04 0.12675240D+01  1  2  5  5  6  2       21 -.117694778245D+01
0.114772890718D-05 0.000000000000D+00 0.000000000000D+00 0.109880665820D-02 0.116692267844D-04  6 2 -1 -13 13 2 -1 4 0.26577468D+00 0.45765153D-02 0.58521526D+04 0.27808504D+04 0.59925641D+04 0.12715974D+01  1  2 11  5  6  2       21 0.797131073799D-03
0.114772890718D-05 0.000000000000D+00 0.000000000000D+00 0.109880665820D-02 0.116692267844D-04  6 2 -3 -13 13 2 -3 4 0.26577468D+00 0.45765153D-02 0.58521526D+04 0.27808504D+04 0.59925641D+04 0.12715974D+01  1  2 11  5  6  2       21 0.713864160253D-03
0.114772890718D-05 0.000000000000D+00 0.000000000000D+00 0.109880665820D-02 0.116692267844D-04  6 2 -5 -13 13 2 -5 4 0.26577468D+00 0.45765153D-02 0.58521526D+04 0.27808504D+04 0.59925641D+04 0.12715974D+01  1  2 11  5  6  2       21 0.357061143435D-03
0.186257652144D-02 0.000000000000D+00 0.000000000000D+00 0.110588041532D-02 0.000000000000D+00  6 2 1 -13 13 2 1 4 0.26495107D+00 0.45907416D-02 0.58521526D+04 0.27808504D+04 0.59925641D+04 0.12715974D+01  1  2 12  6  6  2       21 0.143347846238D+01
0.186257652144D-02 0.000000000000D+00 0.000000000000D+00 0.110588041532D-02 0.000000000000D+00  6 2 3 -13 13 2 3 4 0.26495107D+00 0.45907416D-02 0.58521526D+04 0.27808504D+04 0.59925641D+04 0.12715974D+01  1  2 12  6  6  2       21 0.115943438023D+01
0.186257652144D-02 0.000000000000D+00 0.000000000000D+00 0.110588041532D-02 0.000000000000D+00  6 2 5 -13 13 2 5 4 0.26495107D+00 0.45907416D-02 0.58521526D+04 0.27808504D+04 0.59925641D+04 0.12715974D+01  1  2 12  6  6  2       21 0.580064028861D+00
0.186257652144D-02 0.000000000000D+00 0.000000000000D+00 0.110588041532D-02 0.000000000000D+00  6 2 1 -13 13 2 1 4 0.26495107D+00 0.45907416D-02 0.58521526D+04 0.27808504D+04 0.59925641D+04 0.12715974D+01  1  2 12  6  6  2       21 0.143347846238D+01
0.186257652144D-02 0.000000000000D+00 0.000000000000D+00 0.110588041532D-02 0.000000000000D+00  6 2 3 -13 13 2 3 4 0.26495107D+00 0.45907416D-02 0.58521526D+04 0.27808504D+04 0.59925641D+04 0.12715974D+01  1  2 12  6  6  2       21 0.115943438023D+01
0.186257652144D-02 0.000000000000D+00 0.000000000000D+00 0.110588041532D-02 0.000000000000D+00  6 2 5 -13 13 2 5 4 0.26495107D+00 0.45907416D-02 0.58521526D+04 0.27808504D+04 0.59925641D+04 0.12715974D+01  1  2 12  6  6  2       21 0.580064028861D+00
-.377922063788D-02 0.000000000000D+00 -.158589878939D-03 0.109880665820D-02 0.000000000000D+00  6 2 1 -13 13 2 1 4 0.26495107D+00 0.45890983D-02 0.51033603D+04 0.30058337D+04 0.62418715D+04 0.12675240D+01  1  2  5  6  6  2       21 -.289732056152D+01
-.377922063788D-02 0.000000000000D+00 -.158589878939D-03 0.109880665820D-02 0.000000000000D+00  6 2 3 -13 13 2 3 4 0.26495107D+00 0.45890983D-02 0.51033603D+04 0.30058337D+04 0.62418715D+04 0.12675240D+01  1  2  5  6  6  2       21 -.234432286880D+01
-.377922063788D-02 0.000000000000D+00 -.158589878939D-03 0.109880665820D-02 0.000000000000D+00  6 2 5 -13 13 2 5 4 0.26495107D+00 0.45890983D-02 0.51033603D+04 0.30058337D+04 0.62418715D+04 0.12675240D+01  1  2  5  6  6  2       21 -.117659749702D+01
0.114139162259D-05 0.000000000000D+00 0.000000000000D+00 0.109880665820D-02 0.116047941378D-04  6 2 1 -13 13 2 1 4 0.26577468D+00 0.45765153D-02 0.58521526D+04 0.27808504D+04 0.59925641D+04 0.12715974D+01  1  2 11  6  6  2       21 0.876567458393D-03
0.114139162259D-05 0.000000000000D+00 0.000000000000D+00 0.109880665820D-02 0.116047941378D-04  6 2 3 -13 13 2 3 4 0.26577468D+00 0.45765153D-02 0.58521526D+04 0.27808504D+04 0.59925641D+04 0.12715974D+01  1  2 11  6  6  2       21 0.709285857401D-03
0.114139162259D-05 0.000000000000D+00 0.000000000000D+00 0.109880665820D-02 0.116047941378D-04  6 2 5 -13 13 2 5 4 0.26577468D+00 0.45765153D-02 0.58521526D+04 0.27808504D+04 0.59925641D+04 0.12715974D+01  1  2 11  6  6  2       21 0.354984299284D-03
0.186257652144D-02 0.000000000000D+00 0.000000000000D+00 0.110588041532D-02 0.000000000000D+00  6 2 -2 -13 13 2 -2 4 0.26495107D+00 0.45907416D-02 0.58521526D+04 0.27808504D+04 0.59925641D+04 0.12715974D+01  1  2 12  7  6  2       21 0.128183157176D+01
0.186257652144D-02 0.000000000000D+00 0.000000000000D+00 0.110588041532D-02 0.000000000000D+00  6 2 -2 -13 13 2 -2 4 0.26495107D+00 0.45907416D-02 0.58521526D+04 0.27808504D+04 0.59925641D+04 0.12715974D+01  1  2 12  7  6  2       21 0.128183157176D+01
-.377922063788D-02 0.000000000000D+00 -.158589878939D-03 0.109880665820D-02 0.000000000000D+00  6 2 -2 -13 13 2 -2 4 0.26495107D+00 0.45890983D-02 0.51033603D+04 0.30058337D+04 0.62418715D+04 0.12675240D+01  1  2  5  7  6  2       21 -.259112100029D+01
0.121688959788D-05 0.000000000000D+00 0.000000000000D+00 0.109880665820D-02 0.151420190617D-04  6 2 -2 -13 13 2 -2 4 0.26577468D+00 0.45765153D-02 0.58521526D+04 0.27808504D+04 0.59925641D+04 0.12715974D+01  1  2 11  7  6  2       21 0.835937954419D-03
0.186257652144D-02 0.000000000000D+00 0.000000000000D+00 0.110588041532D-02 0.000000000000D+00  6 2 2 -13 13 2 2 4 0.26495107D+00 0.45907416D-02 0.58521526D+04 0.27808504D+04 0.59925641D+04 0.12715974D+01  1  2 12  8  6  2       21 0.152749810731D+01
0.186257652144D-02 0.000000000000D+00 0.000000000000D+00 0.110588041532D-02 0.000000000000D+00  6 2 2 -13 13 2 2 4 0.26495107D+00 0.45907416D-02 0.58521526D+04 0.27808504D+04 0.59925641D+04 0.12715974D+01  1  2 12  8  6  2       21 0.152749810731D+01
-.377922063788D-02 0.000000000000D+00 -.158589878939D-03 0.109880656785D-02 0.000000000000D+00  6 2 2 -13 13 2 2 4 0.26495107D+00 0.45890983D-02 0.51033603D+04 0.30058367D+04 0.62418737D+04 0.12675239D+01  1  2  5  8  6  2       21 -.308718199718D+01
0.202842062109D-05 0.000000000000D+00 0.000000000000D+00 0.109880656785D-02 0.109315684782D-04  6 2 2 -13 13 2 2 4 0.26577468D+00 0.45765153D-02 0.58521526D+04 0.27808504D+04 0.59925641D+04 0.12715974D+01  1  2 11  8  6  2       21 0.165971638666D-02
0.186257652144D-02 0.000000000000D+00 0.000000000000D+00 0.110588041532D-02 0.000000000000D+00  6 2 -4 -13 13 2 -4 4 0.26495107D+00 0.45907416D-02 0.58521526D+04 0.27808504D+04 0.59925641D+04 0.12715974D+01  1  2 12  9  6  2       21 0.851180073097D+00
0.186257652144D-02 0.000000000000D+00 0.000000000000D+00 0.110588041532D-02 0.000000000000D+00  6 2 -4 -13 13 2 -4 4 0.26495107D+00 0.45907416D-02 0.58521526D+04 0.27808504D+04 0.59925641D+04 0.12715974D+01  1  2 12  9  6  2       21 0.851180073097D+00
-.377922063788D-02 0.000000000000D+00 -.158589878939D-03 0.109880665820D-02 0.000000000000D+00  6 2 -4 -13 13 2 -4 4 0.26495107D+00 0.45890983D-02 0.51033603D+04 0.30058337D+04 0.62418715D+04 0.12675240D+01  1  2  5  9  6  2       21 -.172295363648D+01
0.116481779133D-05 0.000000000000D+00 0.000000000000D+00 0.109880665820D-02 0.118429734447D-04  6 2 -4 -13 13 2 -4 4 0.26577468D+00 0.45765153D-02 0.58521526D+04 0.27808504D+04 0.59925641D+04 0.12715974D+01  1  2 11  9  6  2       21 0.531542089604D-03
0.186257652144D-02 0.000000000000D+00 0.000000000000D+00 0.110588041532D-02 0.000000000000D+00  6 2 4 -13 13 2 4 4 0.26495107D+00 0.45907416D-02 0.58521526D+04 0.27808504D+04 0.59925641D+04 0.12715974D+01  1  2 12 10  6  2       21 0.850679303755D+00
0.186257652144D-02 0.000000000000D+00 0.000000000000D+00 0.110588041532D-02 0.000000000000D+00  6 2 4 -13 13 2 4 4 0.26495107D+00 0.45907416D-02 0.58521526D+04 0.27808504D+04 0.59925641D+04 0.12715974D+01  1  2 12 10  6  2       21 0.850679303755D+00
-.377922063788D-02 0.000000000000D+00 -.158589878939D-03 0.109880665820D-02 0.000000000000D+00  6 2 4 -13 13 2 4 4 0.26495107D+00 0.45890983D-02 0.51033603D+04 0.30058337D+04 0.62418715D+04 0.12675240D+01  1  2  5 10  6  2       21 -.172194130872D+01
0.117084282844D-05 0.000000000000D+00 0.000000000000D+00 0.109880665820D-02 0.119042313986D-04  6 2 4 -13 13 2 4 4 0.26577468D+00 0.45765153D-02 0.58521526D+04 0.27808504D+04 0.59925641D+04 0.12715974D+01  1  2 11 10  6  2       21 0.533978731539D-03
  </mgrwgt>
  </event>
  <event npLO=' -1 ' npNLO=' 1 '>
  6     66 0.13243562E+02 0.21044143E+02 0.75467711E-02 0.15508014E+00
        2 -1    0    0  502    0 0.00000000E+00 0.00000000E+00 0.35656523E+03 0.35656523E+03 0.00000000E+00 0.0000E+00 0.9000E+01
       21 -1    0    0  501  502 0.00000000E+00 0.00000000E+00 -.41502797E+02 0.41502797E+02 0.00000000E+00 0.0000E+00 0.9000E+01
       23  2    1    2    0    0 -.41192585E+01 0.20637046E+02 0.34727986E+03 0.35958663E+03 0.90864648E+02 0.0000E+00 0.0000E+00
      -11  1    3    3    0    0 0.26369567E+02 0.37939579E+02 0.10409858E+03 0.11389153E+03 0.00000000E+00 0.0000E+00 0.9000E+01
       11  1    3    3    0    0 -.30488825E+02 -.17302534E+02 0.24318128E+03 0.24569510E+03 0.00000000E+00 0.0000E+00 0.9000E+01
        2  1    1    2  501    0 0.41192585E+01 -.20637046E+02 -.32217425E+02 0.38481404E+02 0.00000000E+00 0.0000E+00 0.9000E+01
#aMCatNLO 1  0  0  5  2 0.11208232D+02 0.00000000D+00  -5  6  0 0.00000000D+00 0.00000000D+00 0.00000000D+00 0.00000000D+00 0.00000000D+00
  <mgrwgt>
 0.6889113723D+03    7    2    0
 0.121648898986357D+03 0.000000000000000D+00 0.000000000000000D+00 0.121648898986357D+03
 0.121648898986357D+03 -.000000000000000D+00 -.000000000000000D+00 -.121648898986357D+03
 0.515377618211645D+02 0.263695669218074D+02 0.379395793077479D+02 0.228336408801248D+02
 0.870787880783962D+02 -.304888254638602D+02 -.173025335174205D+02 0.797105337387415D+02
 0.104681248073152D+03 0.411925854205284D+01 -.206370457903274D+02 -.102544174618866D+03
 0.000000000000000D+00 0.000000000000000D+00 -.000000000000000D+00 0.000000000000000D+00
 0.121648898986357D+03 0.000000000000000D+00 0.000000000000000D+00 0.121648898986357D+03
 0.121648898986357D+03 -.000000000000000D+00 -.000000000000000D+00 -.121648898986357D+03
 0.512265014086342D+02 0.263916266121139D+02 0.378290626129765D+02 0.222844904173074D+02
 0.862561598665652D+02 -.304516168550424D+02 -.174889446776156D+02 0.787842684798396D+02
 0.687142208061387D+02 0.130352327593882D+02 -.920331598161942D+01 -.668358124275140D+02
 0.371009158913750D+02 -.897524251645970D+01 -.111368019537414D+02 -.342329464696330D+02
0.240691560811D-02 0.000000000000D+00 0.000000000000D+00 0.144884665048D-01 0.000000000000D+00  6 2 21 -11 11 2 21 2 0.54856190D-01 0.63850457D-02 0.26165269D+04 0.44285595D+03 0.32669147D+04 0.13814389D+01  1  2  2  3  6  5        2 0.859018293696D+02
0.292083527119D-03 0.116855112122D-03 0.530244494788D-05 0.144884665048D-01 0.000000000000D+00  6 2 21 -11 11 2 21 4 0.54856190D-01 0.63850457D-02 0.26165269D+04 0.44285595D+03 0.32669147D+04 0.13814389D+01  1  2  3  3  6  5        2 0.583586289973D+01
0.256035309797D-03 0.000000000000D+00 0.000000000000D+00 0.144884665048D-01 0.000000000000D+00  6 2 21 -11 11 2 21 4 0.54856190D-01 0.63850457D-02 0.26165269D+04 0.44285595D+03 0.32669147D+04 0.13814389D+01  1  2 15  3  6  5        2 0.174383262900D+02
0.142914357395D-01 0.000000000000D+00 0.000000000000D+00 0.147953440930D-01 0.000000000000D+00  6 2 21 -11 11 2 21 4 0.54856190D-01 0.63850457D-02 0.31081685D+04 0.35887535D+03 0.31227101D+04 0.13959923D+01  1  2 12  3  6  5        2 0.101298696358D+04
-.121271973217D-01 0.000000000000D+00 0.000000000000D+00 0.144884665048D-01 0.000000000000D+00  6 2 21 -11 11 2 21 4 0.54856190D-01 0.63850457D-02 0.26165269D+04 0.44285595D+03 0.32669147D+04 0.13814389D+01  1  2  4  3  6  5        2 -.825972105364D+03
-.140069827662D-01 0.000000000000D+00 0.000000000000D+00 0.144884665048D-01 0.000000000000D+00  6 2 21 -11 11 2 21 4 0.54856190D-01 0.63850457D-02 0.26165269D+04 0.44285595D+03 0.32669147D+04 0.13814389D+01  1  2  5  3  6  5        2 -.954002539765D+03
0.197730357722D-01 0.000000000000D+00 -.000000000000D+00 0.144884665048D-01 0.000000000000D+00  6 2 21 -11 11 2 21 4 0.54856190D-01 0.63850457D-02 0.26165269D+04 0.44285595D+03 0.32669147D+04 0.13814389D+01  1  2  6  3  6  5        2 0.134672303525D+04
  </mgrwgt>
  </event>
  <event npLO=' -1 ' npNLO=' 1 '>
  6     66 0.13243562E+02 0.12773708E+02 0.75467711E-02 0.17191135E+00
        2 -1    0    0  502    0 0.00000000E+00 0.00000000E+00 0.26031930E+03 0.26031930E+03 0.00000000E+00 0.0000E+00 0.9000E+01
       21 -1    0    0  501  502 0.00000000E+00 0.00000000E+00 -.11827730E+03 0.11827730E+03 0.00000000E+00 0.0000E+00 0.9000E+01
       23  2    1    2    0    0 -.19340299E+01 0.12626447E+02 0.25260564E+03 0.26729752E+03 0.86459178E+02 0.0000E+00 0.0000E+00
      -13  1    3    3    0    0 -.38060279E+02 -.14421611E+02 0.94855705E+02 0.10321905E+03 0.00000000E+00 0.0000E+00 0.9000E+01
       13  1    3    3    0    0 0.36126249E+02 0.27048058E+02 0.15774993E+03 0.16407847E+03 0.00000000E+00 0.0000E+00 0.9000E+01
        2  1    1    2  501    0 0.19340299E+01 -.12626447E+02 -.11056364E+03 0.11129908E+03 0.00000000E+00 0.0000E+00 0.9000E+01
#aMCatNLO 1  0  0  2  1 0.96711565D+01 0.00000000D+00  -5  6  0 0.00000000D+00 0.00000000D+00 0.00000000D+00 0.00000000D+00 0.00000000D+00
  <mgrwgt>
 0.5512025011D+04   49    2    0
 0.175470410398023D+03 0.000000000000000D+00 0.000000000000000D+00 0.175470410398023D+03
 0.175470410398023D+03 0.000000000000000D+00 0.000000000000000D+00 -.175470410398023D+03
 0.729607007821490D+02 -.380602792319661D+02 -.144216112729104D+02 0.605532503809672D+02
 0.113159923185923D+03 0.361262492910645D+02 0.270480578267056D+02 0.103771214194530D+03
 0.164820196827974D+03 0.193402994090156D+01 -.126264465537951D+02 -.164324464575497D+03
 0.000000000000000D+00 -.000000000000000D+00 0.000000000000000D+00 -.000000000000000D+00
 0.176920971253523D+03 0.000000000000000D+00 0.000000000000000D+00 0.176920971253523D+03
 0.190855359641656D+03 0.000000000000000D+00 0.000000000000000D+00 -.190855359641656D+03
 0.721244195849879D+02 -.362234455049474D+02 -.149364575626681D+02 0.605532503809672D+02
 0.113921960734131D+03 0.390011937521078D+02 0.262422393863888D+02 0.103771214194530D+03
 0.165015801223999D+03 0.610988122098891D+01 -.137968962828634D+02 -.164324464575497D+03
 0.167141493520606D+02 -.888762946814935D+01 0.249111445914268D+01 -.139343883881325D+02
0.204096304965D-01 0.000000000000D+00 0.000000000000D+00 0.600543742865D-02 0.000000000000D+00  6 2 21 -13 13 2 21 2 0.40049123D-01 0.18196508D-01 0.24307125D+04 0.16316762D+03 0.25085775D+04 0.14551513D+01  1  2  2  2  6  2       21 0.197956096974D+03
0.772622563315D-02 0.990882128144D-03 0.449624996197D-04 0.600543742865D-02 0.000000000000D+00  6 2 21 -13 13 2 21 4 0.40049123D-01 0.18196508D-01 0.24307125D+04 0.16316762D+03 0.25085775D+04 0.14551513D+01  1  2  3  2  6  2       21 0.103737778283D+03
0.184375726259D-02 0.000000000000D+00 0.000000000000D+00 0.600543742865D-02 0.000000000000D+00  6 2 21 -13 13 2 21 4 0.40049123D-01 0.18196508D-01 0.24307125D+04 0.16316762D+03 0.25085775D+04 0.14551513D+01  1  2 15  2  6  2       21 0.378663820409D+02
0.153844243847D+00 0.000000000000D+00 0.000000000000D+00 0.612692734383D-02 0.000000000000D+00  6 2 21 -13 13 2 21 4 0.40049123D-01 0.19955561D-01 0.30530833D+04 0.13629296D+03 0.24462059D+04 0.14697965D+01  1  2 12  2  6  2       21 0.280236994717D+04
0.153844243847D+00 0.000000000000D+00 0.000000000000D+00 0.612692734383D-02 0.000000000000D+00  6 2 21 -13 13 2 21 4 0.40049123D-01 0.19955561D-01 0.30530833D+04 0.13629296D+03 0.24462059D+04 0.14697965D+01  1  2 12  2  6  2       21 0.280236994717D+04
-.773786967024D-01 0.000000000000D+00 0.000000000000D+00 0.600543742865D-02 0.000000000000D+00  6 2 21 -13 13 2 21 4 0.40049123D-01 0.18196508D-01 0.24307125D+04 0.16316762D+03 0.25085775D+04 0.14551513D+01  1  2  4  2  6  2       21 -.158917410150D+04
-.400632760578D+00 0.000000000000D+00 -.558055142516D-01 0.600543742865D-02 0.000000000000D+00  6 2 21 -13 13 2 21 4 0.40049123D-01 0.19926724D-01 0.24307125D+04 0.16316762D+03 0.25085775D+04 0.14551513D+01  1  2  5  2  6  2       21 -.706242580531D+04
0.398858047065D+00 0.000000000000D+00 0.548953257938D-01 0.600543742865D-02 0.000000000000D+00  6 2 21 -13 13 2 21 4 0.40049123D-01 0.18196508D-01 0.24307125D+04 0.16316762D+03 0.25085775D+04 0.14551513D+01  1  2  6  2  6  2       21 0.822714328960D+04
0.204993098979D-07 0.000000000000D+00 0.000000000000D+00 0.600543742865D-02 0.710358641847D-03  6 2 21 -13 13 2 21 4 0.40380197D-01 0.19791947D-01 0.30530833D+04 0.13629296D+03 0.24462059D+04 0.14697965D+01  1  2 11  2  6  2       21 0.375548962243D-03
0.365600944817D-02 0.000000000000D+00 0.000000000000D+00 0.612692734383D-02 0.000000000000D+00  6 2 -1 -13 13 2 -1 4 0.40049123D-01 0.19955561D-01 0.30530833D+04 0.13629296D+03 0.24462059D+04 0.14697965D+01  1  2 12  5  6  2       21 0.545650426950D+01
0.365600944817D-02 0.000000000000D+00 0.000000000000D+00 0.612692734383D-02 0.000000000000D+00  6 2 -3 -13 13 2 -3 4 0.40049123D-01 0.19955561D-01 0.30530833D+04 0.13629296D+03 0.24462059D+04 0.14697965D+01  1  2 12  5  6  2       21 0.408350872271D+01
0.365600944817D-02 0.000000000000D+00 0.000000000000D+00 0.612692734383D-02 0.000000000000D+00  6 2 -5 -13 13 2 -5 4 0.40049123D-01 0.19955561D-01 0.30530833D+04 0.13629296D+03 0.24462059D+04 0.14697965D+01  1  2 12  5  6  2       21 0.156846411860D+01
0.365600944817D-02 0.000000000000D+00 0.000000000000D+00 0.612692734383D-02 0.000000000000D+00  6 2 -1 -13 13 2 -1 4 0.40049123D-01 0.19955561D-01 0.30530833D+04 0.13629296D+03 0.24462059D+04 0.14697965D+01  1  2 12  5  6  2       21 0.545650426950D+01
0.365600944817D-02 0.000000000000D+00 0.000000000000D+00 0.612692734383D-02 0.000000000000D+00  6 2 -3 -13 13 2 -3 4 0.40049123D-01 0.19955561D-01 0.30530833D+04 0.13629296D+03 0.24462059D+04 0.14697965D+01  1  2 12  5  6  2       21 0.408350872271D+01
0.365600944817D-02 0.000000000000D+00 0.000000000000D+00 0.612692734383D-02 0.000000000000D+00  6 2 -5 -13 13 2 -5 4 0.40049123D-01 0.19955561D-01 0.30530833D+04 0.13629296D+03 0.24462059D+04 0.14697965D+01  1  2 12  5  6  2       21 0.156846411860D+01
-.822575493185D-02 0.000000000000D+00 -.127980867827D-02 0.600543742865D-02 0.000000000000D+00  6 2 -1 -13 13 2 -1 4 0.40049123D-01 0.19926724D-01 0.24307125D+04 0.16316762D+03 0.25085775D+04 0.14551513D+01  1  2  5  5  6  2       21 -.118874786968D+02
-.822575493185D-02 0.000000000000D+00 -.127980867827D-02 0.600543742865D-02 0.000000000000D+00  6 2 -3 -13 13 2 -3 4 0.40049123D-01 0.19926724D-01 0.24307125D+04 0.16316762D+03 0.25085775D+04 0.14551513D+01  1  2  5  5  6  2       21 -.890096111448D+01
-.822575493185D-02 0.000000000000D+00 -.127980867827D-02 0.600543742865D-02 0.000000000000D+00  6 2 -5 -13 13 2 -5 4 0.40049123D-01 0.19926724D-01 0.24307125D+04 0.16316762D+03 0.25085775D+04 0.14551513D+01  1  2  5  5  6  2       21 -.342832123365D+01
0.701201335830D-08 0.000000000000D+00 0.000000000000D+00 0.600543742865D-02 0.242644142001D-04  6 2 -1 -13 13 2 -1 4 0.40380197D-01 0.19791947D-01 0.30530833D+04 0.13629296D+03 0.24462059D+04 0.14697965D+01  1  2 11  5  6  2       21 0.105053810171D-04
0.701201335830D-08 0.000000000000D+00 0.000000000000D+00 0.600543742865D-02 0.242644142001D-04  6 2 -3 -13 13 2 -3 4 0.40380197D-01 0.19791947D-01 0.30530833D+04 0.13629296D+03 0.24462059D+04 0.14697965D+01  1  2 11  5  6  2       21 0.787506727449D-05
0.701201335830D-08 0.000000000000D+00 0.000000000000D+00 0.600543742865D-02 0.242644142001D-04  6 2 -5 -13 13 2 -5 4 0.40380197D-01 0.19791947D-01 0.30530833D+04 0.13629296D+03 0.24462059D+04 0.14697965D+01  1  2 11  5  6  2       21 0.302776921479D-05
0.365600944817D-02 0.000000000000D+00 0.000000000000D+00 0.612692734383D-02 0.000000000000D+00  6 2 1 -13 13 2 1 4 0.40049123D-01 0.19955561D-01 0.30530833D+04 0.13629296D+03 0.24462059D+04 0.14697965D+01  1  2 12  6  6  2       21 0.759266521304D+01
0.365600944817D-02 0.000000000000D+00 0.000000000000D+00 0.612692734383D-02 0.000000000000D+00  6 2 3 -13 13 2 3 4 0.40049123D-01 0.19955561D-01 0.30530833D+04 0.13629296D+03 0.24462059D+04 0.14697965D+01  1  2 12  6  6  2       21 0.409260300995D+01
0.365600944817D-02 0.000000000000D+00 0.000000000000D+00 0.612692734383D-02 0.000000000000D+00  6 2 5 -13 13 2 5 4 0.40049123D-01 0.19955561D-01 0.30530833D+04 0.13629296D+03 0.24462059D+04 0.14697965D+01  1  2 12  6  6  2       21 0.156566612123D+01
0.365600944817D-02 0.000000000000D+00 0.000000000000D+00 0.612692734383D-02 0.000000000000D+00  6 2 1 -13 13 2 1 4 0.40049123D-01 0.19955561D-01 0.30530833D+04 0.13629296D+03 0.24462059D+04 0.14697965D+01  1  2 12  6  6  2       21 0.759266521304D+01
0.365600944817D-02 0.000000000000D+00 0.000000000000D+00 0.612692734383D-02 0.000000000000D+00  6 2 3 -13 13 2 3 4 0.40049123D-01 0.19955561D-01 0.30530833D+04 0.13629296D+03 0.24462059D+04 0.14697965D+01  1  2 12  6  6  2       21 0.409260300995D+01
0.365600944817D-02 0.000000000000D+00 0.000000000000D+00 0.612692734383D-02 0.000000000000D+00  6 2 5 -13 13 2 5 4 0.40049123D-01 0.19955561D-01 0.30530833D+04 0.13629296D+03 0.24462059D+04 0.14697965D+01  1  2 12  6  6  2       21 0.156566612123D+01
-.822575493185D-02 0.000000000000D+00 -.127980867827D-02 0.600543742865D-02 0.000000000000D+00  6 2 1 -13 13 2 1 4 0.40049123D-01 0.19926724D-01 0.24307125D+04 0.16316762D+03 0.25085775D+04 0.14551513D+01  1  2  5  6  6  2       21 -.165344734319D+02
-.822575493185D-02 0.000000000000D+00 -.127980867827D-02 0.600543742865D-02 0.000000000000D+00  6 2 3 -13 13 2 3 4 0.40049123D-01 0.19926724D-01 0.24307125D+04 0.16316762D+03 0.25085775D+04 0.14551513D+01  1  2  5  6  6  2       21 -.892083217976D+01
-.822575493185D-02 0.000000000000D+00 -.127980867827D-02 0.600543742865D-02 0.000000000000D+00  6 2 5 -13 13 2 5 4 0.40049123D-01 0.19926724D-01 0.24307125D+04 0.16316762D+03 0.25085775D+04 0.14551513D+01  1  2  5  6  6  2       21 -.342222045374D+01
0.701704656392D-08 0.000000000000D+00 0.000000000000D+00 0.600543742865D-02 0.242818311358D-04  6 2 1 -13 13 2 1 4 0.40380197D-01 0.19791947D-01 0.30530833D+04 0.13629296D+03 0.24462059D+04 0.14697965D+01  1  2 11  6  6  2       21 0.145952818948D-04
0.701704656392D-08 0.000000000000D+00 0.000000000000D+00 0.600543742865D-02 0.242818311358D-04  6 2 3 -13 13 2 3 4 0.40380197D-01 0.19791947D-01 0.30530833D+04 0.13629296D+03 0.24462059D+04 0.14697965D+01  1  2 11  6  6  2       21 0.789803691936D-05
0.701704656392D-08 0.000000000000D+00 0.000000000000D+00 0.600543742865D-02 0.242818311358D-04  6 2 5 -13 13 2 5 4 0.40380197D-01 0.19791947D-01 0.30530833D+04 0.13629296D+03 0.24462059D+04 0.14697965D+01  1  2 11  6  6  2       21 0.302457780782D-05
0.365600944817D-02 0.000000000000D+00 0.000000000000D+00 0.612692734383D-02 0.000000000000D+00  6 2 -2 -13 13 2 -2 4 0.40049123D-01 0.19955561D-01 0.30530833D+04 0.13629296D+03 0.24462059D+04 0.14697965D+01  1  2 12  7  6  2       21 0.504827759859D+01
0.365600944817D-02 0.000000000000D+00 0.000000000000D+00 0.612692734383D-02 0.000000000000D+00  6 2 -2 -13 13 2 -2 4 0.40049123D-01 0.19955561D-01 0.30530833D+04 0.13629296D+03 0.24462059D+04 0.14697965D+01  1  2 12  7  6  2       21 0.504827759859D+01
-.822575493185D-02 0.000000000000D+00 -.127980867827D-02 0.600543742865D-02 0.000000000000D+00  6 2 -2 -13 13 2 -2 4 0.40049123D-01 0.19926724D-01 0.24307125D+04 0.16316762D+03 0.25085775D+04 0.14551513D+01  1  2  5  7  6  2       21 -.109995561703D+02
0.698229080155D-08 0.000000000000D+00 0.000000000000D+00 0.600543742865D-02 0.466014797734D-04  6 2 -2 -13 13 2 -2 4 0.40380197D-01 0.19791947D-01 0.30530833D+04 0.13629296D+03 0.24462059D+04 0.14697965D+01  1  2 11  7  6  2       21 0.968383063993D-05
0.365601015476D-02 0.000000000000D+00 0.000000000000D+00 0.612692734383D-02 0.000000000000D+00  6 2 2 -13 13 2 2 4 0.40049123D-01 0.19955561D-01 0.30530833D+04 0.13629296D+03 0.24462059D+04 0.14697965D+01  1  2 12  8  6  2       21 0.915578877356D+01
0.365601015476D-02 0.000000000000D+00 0.000000000000D+00 0.612692734383D-02 0.000000000000D+00  6 2 2 -13 13 2 2 4 0.40049123D-01 0.19955561D-01 0.30530833D+04 0.13629296D+03 0.24462059D+04 0.14697965D+01  1  2 12  8  6  2       21 0.915578877356D+01
-.822575652162D-02 0.000000000000D+00 -.127980892562D-02 0.600543676705D-02 0.000000000000D+00  6 2 2 -13 13 2 2 4 0.40049123D-01 0.19926724D-01 0.24307125D+04 0.16316779D+03 0.25085778D+04 0.14551513D+01  1  2  5  8  6  2       21 -.199356196477D+02
0.541525383395D-07 0.000000000000D+00 0.000000000000D+00 0.600543676705D-02 0.851331468106D-03  6 2 2 -13 13 2 2 4 0.40380197D-01 0.19791947D-01 0.30530833D+04 0.13629296D+03 0.24462059D+04 0.14697965D+01  1  2 11  8  6  2       21 0.135689457699D-03
0.365600944817D-02 0.000000000000D+00 0.000000000000D+00 0.612692734383D-02 0.000000000000D+00  6 2 -4 -13 13 2 -4 4 0.40049123D-01 0.19955561D-01 0.30530833D+04 0.13629296D+03 0.24462059D+04 0.14697965D+01  1  2 12  9  6  2       21 0.251997596626D+01
0.365600944817D-02 0.000000000000D+00 0.000000000000D+00 0.612692734383D-02 0.000000000000D+00  6 2 -4 -13 13 2 -4 4 0.40049123D-01 0.19955561D-01 0.30530833D+04 0.13629296D+03 0.24462059D+04 0.14697965D+01  1  2 12  9  6  2       21 0.251997596626D+01
-.822575493185D-02 0.000000000000D+00 -.127980867827D-02 0.600543742865D-02 0.000000000000D+00  6 2 -4 -13 13 2 -4 4 0.40049123D-01 0.19926724D-01 0.24307125D+04 0.16316762D+03 0.25085775D+04 0.14551513D+01  1  2  5  9  6  2       21 -.549900254456D+01
0.700651531578D-08 0.000000000000D+00 0.000000000000D+00 0.600543742865D-02 0.242453887399D-04  6 2 -4 -13 13 2 -4 4 0.40380197D-01 0.19791947D-01 0.30530833D+04 0.13629296D+03 0.24462059D+04 0.14697965D+01  1  2 11  9  6  2       21 0.485973044321D-05
0.365600944817D-02 0.000000000000D+00 0.000000000000D+00 0.612692734383D-02 0.000000000000D+00  6 2 4 -13 13 2 4 4 0.40049123D-01 0.19955561D-01 0.30530833D+04 0.13629296D+03 0.24462059D+04 0.14697965D+01  1  2 12 10  6  2       21 0.251144706990D+01
0.365600944817D-02 0.000000000000D+00 0.000000000000D+00 0.612692734383D-02 0.000000000000D+00  6 2 4 -13 13 2 4 4 0.40049123D-01 0.19955561D-01 0.30530833D+04 0.13629296D+03 0.24462059D+04 0.14697965D+01  1  2 12 10  6  2       21 0.251144706990D+01
-.822575493185D-02 0.000000000000D+00 -.127980867827D-02 0.600543742865D-02 0.000000000000D+00  6 2 4 -13 13 2 4 4 0.40049123D-01 0.19926724D-01 0.24307125D+04 0.16316762D+03 0.25085775D+04 0.14551513D+01  1  2  5 10  6  2       21 -.548043723347D+01
0.700616710786D-08 0.000000000000D+00 0.000000000000D+00 0.600543742865D-02 0.242441837991D-04  6 2 4 -13 13 2 4 4 0.40380197D-01 0.19791947D-01 0.30530833D+04 0.13629296D+03 0.24462059D+04 0.14697965D+01  1  2 11 10  6  2       21 0.484316162847D-05
  </mgrwgt>
  </event>
  <event npLO=' -1 ' npNLO=' 1 '>
  7     66 -.13243562E+02 0.99153742E+01 0.75467711E-02 0.17665519E+00
        2 -1    0    0  502    0 0.00000000E+00 0.00000000E+00 0.14569352E+04 0.14569352E+04 0.00000000E+00 0.0000E+00 0.9000E+01
       21 -1    0    0  503  502 0.00000000E+00 0.00000000E+00 -.76775986E+01 0.76775986E+01 0.00000000E+00 0.0000E+00 0.9000E+01
       23  2    1    2    0    0 -.93506624E+01 -.14139743E+01 0.14272623E+04 0.14296363E+04 0.81809252E+02 0.0000E+00 0.0000E+00
      -11  1    3    3    0    0 0.28188909E+02 -.25284314E+02 0.65289289E+03 0.65399009E+03 0.00000000E+00 0.0000E+00 0.9000E+01
       11  1    3    3    0    0 -.37539571E+02 0.23870340E+02 0.77436940E+03 0.77564617E+03 0.00000000E+00 0.0000E+00 0.9000E+01
        2  1    1    2  501    0 0.91958021E+01 0.12304780E+02 0.17242738E+02 0.23092908E+02 0.00000000E+00 0.0000E+00 0.9000E+01
       21  1    1    2  503  501 0.15486029E+00 -.10890805E+02 0.47525643E+01 0.11883623E+02 0.00000000E+00 0.0000E+00 0.9000E+01
#aMCatNLO 2  0  0  2  1 0.10958653D+02 0.00000000D+00  -5  6  0 0.00000000D+00 0.00000000D+00 0.00000000D+00 0.00000000D+00 0.00000000D+00
  <mgrwgt>
 -.7758738079D+03    3    2    0
 0.769880217218044D+02 0.000000000000000D+00 0.000000000000000D+00 0.769880217218044D+02
 0.769880217218044D+02 0.000000000000000D+00 0.000000000000000D+00 -.769880217218044D+02
 0.470407396015000D+02 0.282351918797084D+02 -.285392276743764D+02 0.245176998415898D+02
 0.516803829223641D+02 -.374868590626608D+02 0.201632540483679D+02 0.293093937637640D+02
 0.552549209197446D+02 0.925166718295237D+01 0.837597362600854D+01 -.538270936053538D+02
 0.000000000000000D+00 0.000000000000000D+00 -.000000000000000D+00 -.000000000000000D+00
 0.776235753810122D+02 0.000000000000000D+00 0.000000000000000D+00 0.776235753810122D+02
 0.144102657714991D+03 0.000000000000000D+00 0.000000000000000D+00 -.144102657714991D+03
 0.451112926741065D+02 0.281889090853143D+02 -.252843138286663D+02 0.245176998415898D+02
 0.532733807386946D+02 -.375395714483180D+02 0.238703395033914D+02 0.293093937637640D+02
 0.559761233538247D+02 0.919580207151393D+01 0.123047797210931D+02 -.538270936053538D+02
 0.673654363293778D+02 0.154860291489821D+00 -.108908053958182D+02 -.664790823339793D+02
-.311037481664D-02 0.000000000000D+00 0.000000000000D+00 0.175369828727D-03 0.000000000000D+00  6 2 21 -11 11 2 21 4 0.22230867D+00 0.11909198D-02 0.29488346D+04 0.10737353D+03 0.21787792D+04 0.14899378D+01  1  2 13  2  6  2       21 -.670922860113D+03
-.311037481664D-02 0.000000000000D+00 0.000000000000D+00 0.175369828727D-03 0.000000000000D+00  6 2 21 -11 11 2 21 4 0.22230867D+00 0.11909198D-02 0.29488346D+04 0.10737353D+03 0.21787792D+04 0.14899378D+01  1  2 13  2  6  2       21 -.670922860113D+03
0.262845883303D-02 0.000000000000D+00 0.000000000000D+00 0.168138289146D-03 0.488126066890D-04  6 2 21 -11 11 2 21 4 0.22414388D+00 0.11811690D-02 0.29488346D+04 0.10737353D+03 0.21787792D+04 0.14899378D+01  1  2  1  2  6  2       21 0.565971912339D+03
  </mgrwgt>
  </event>
  <event npLO=' -1 ' npNLO=' 1 '>
  6     66 -.13243562E+02 0.56025503E+02 0.75467711E-02 0.12739691E+00
        4 -1    0    0  502    0 0.00000000E+00 0.00000000E+00 0.53340835E+02 0.53340835E+02 0.00000000E+00 0.0000E+00 0.9000E+01
       21 -1    0    0  501  502 0.00000000E+00 0.00000000E+00 -.14627140E+03 0.14627140E+03 0.00000000E+00 0.0000E+00 0.9000E+01
       23  2    1    2    0    0 -.37281711E+02 0.41820222E+02 -.16434157E+02 0.10479368E+03 0.87021708E+02 0.0000E+00 0.0000E+00
      -13  1    3    3    0    0 -.56452623E+02 0.15535968E+02 0.14046597E+02 0.60212721E+02 0.00000000E+00 0.0000E+00 0.9000E+01
       13  1    3    3    0    0 0.19170912E+02 0.26284254E+02 -.30480754E+02 0.44580963E+02 0.00000000E+00 0.0000E+00 0.9000E+01
        4  1    1    2  501    0 0.37281711E+02 -.41820222E+02 -.76496404E+02 0.94818547E+02 0.00000000E+00 0.0000E+00 0.9000E+01
#aMCatNLO 1  0  0  2  1 0.10958653D+02 0.00000000D+00  -5  6  0 0.00000000D+00 0.00000000D+00 0.00000000D+00 0.00000000D+00 0.00000000D+00
  <mgrwgt>
 -.5477698830D+01    1    2    0
 0.883302797226392D+02 0.000000000000000D+00 0.000000000000000D+00 0.883302797226392D+02
 0.883302797226392D+02 0.000000000000000D+00 0.000000000000000D+00 -.883302797226392D+02
 0.754246090908392D+02 -.564526225044372D+02 0.155359680227211D+02 0.475458385820926D+02
 0.343388011018002D+02 0.191709116140950D+02 0.262842542464493D+02 -.109894216272543D+02
 0.668971492526390D+02 0.372817108903422D+02 -.418202222691704D+02 -.365564169548383D+02
 0.000000000000000D+00 -.000000000000000D+00 -.000000000000000D+00 0.000000000000000D+00
 0.103352602366397D+03 0.000000000000000D+00 0.000000000000000D+00 0.103352602366397D+03
 0.101220635405735D+03 0.000000000000000D+00 0.000000000000000D+00 -.101220635405735D+03
 0.696061754170933D+02 -.467928142999878D+02 0.198707176419880D+02 0.475458385820926D+02
 0.388538455668788D+02 0.240459243997895D+02 0.284718711607248D+02 -.109894216272543D+02
 0.700936803421613D+02 0.464060160793678D+02 -.377257746769308D+02 -.365564169548383D+02
 0.260195364459981D+02 -.236591261791695D+02 -.106168141257820D+02 0.213196696066241D+01
-.236545932866D-03 0.000000000000D+00 0.000000000000D+00 0.602010944635D-04 0.000000000000D+00  6 4 21 -13 13 4 21 4 0.82062822D-02 0.22503292D-01 0.54103183D+04 0.31388570D+04 0.63618594D+04 0.12652734D+01  1  2 14  2  6  2       21 -.547769882975D+01
  </mgrwgt>
  </event>
  <event npLO=' -1 ' npNLO=' 1 '>
  6     66 0.13243562E+02 0.14568533E+02 0.75467711E-02 0.16640010E+00
        2 -1    0    0  502    0 0.00000000E+00 0.00000000E+00 0.52105816E+03 0.52105816E+03 0.00000000E+00 0.0000E+00 0.9000E+01
       21 -1    0    0  501  502 0.00000000E+00 0.00000000E+00 -.87081060E+01 0.87081060E+01 0.00000000E+00 0.0000E+00 0.9000E+01
       23  2    1    2    0    0 -.14564963E+02 -.32249165E+00 0.50506974E+03 0.51347992E+03 0.91399913E+02 0.0000E+00 0.0000E+00
      -11  1    3    3    0    0 -.38379261E+02 0.21380350E+02 0.42357154E+03 0.42584379E+03 0.00000000E+00 0.0000E+00 0.9000E+01
       11  1    3    3    0    0 0.23814298E+02 -.21702841E+02 0.81498199E+02 0.87636126E+02 0.00000000E+00 0.0000E+00 0.9000E+01
        2  1    1    2  501    0 0.14564963E+02 0.32249165E+00 0.72803175E+01 0.16286349E+02 0.00000000E+00 0.0000E+00 0.9000E+01
#aMCatNLO 1  0  0  5  2 0.28468731D+01 0.00000000D+00  -5  6  0 0.00000000D+00 0.00000000D+00 0.00000000D+00 0.00000000D+00 0.00000000D+00
  <mgrwgt>
 0.4733417907D+03    8    2    0
 0.673604460560577D+02 0.000000000000000D+00 0.000000000000000D+00 0.673604460560577D+02
 0.673604460560577D+02 -.000000000000000D+00 -.000000000000000D+00 -.673604460560577D+02
 0.636929792811409D+02 -.383792606427955D+02 0.213803497572782D+02 0.461162510019696D+02
 0.346721017827744D+02 0.238142978162888D+02 -.217028414073414D+02 -.128070502614753D+02
 0.363558110482001D+02 0.145649628265067D+02 0.322491650063234D+00 -.333092007404943D+02
 0.000000000000000D+00 0.000000000000000D+00 0.000000000000000D+00 0.000000000000000D+00
 0.673604460560577D+02 0.000000000000000D+00 0.000000000000000D+00 0.673604460560577D+02
 0.673604460560577D+02 -.000000000000000D+00 -.000000000000000D+00 -.673604460560577D+02
 0.634384645252379D+02 -.382661395722015D+02 0.213828544393119D+02 0.458575498646391D+02
 0.347660913119328D+02 0.238760836539054D+02 -.217014733697459D+02 -.129483507846971D+02
 0.912047369213444D+01 0.158605518386828D+01 0.202665808602299D+01 -.874986436037717D+01
 0.273958625828103D+02 0.128040007344278D+02 -.170803915558893D+01 -.241593347195649D+02
0.182878033581D-03 0.000000000000D+00 0.000000000000D+00 0.445991646120D-02 0.000000000000D+00  6 2 21 -11 11 2 21 2 0.80162794D-01 0.13397086D-02 0.20575920D+04 0.21224214D+03 0.28687929D+04 0.14345530D+01  1  2  2  3  6  5        2 0.503202493505D+02
0.168779172930D-04 0.887867985345D-05 0.402881057389D-06 0.445991646120D-02 0.000000000000D+00  6 2 21 -11 11 2 21 4 0.80162794D-01 0.13397086D-02 0.20575920D+04 0.21224214D+03 0.28687929D+04 0.14345530D+01  1  2  3  3  6  5        2 -.178749072115D+01
0.169980089039D-04 0.000000000000D+00 0.000000000000D+00 0.445991646120D-02 0.000000000000D+00  6 2 21 -11 11 2 21 4 0.80162794D-01 0.13397086D-02 0.20575920D+04 0.21224214D+03 0.28687929D+04 0.14345530D+01  1  2 15  3  6  5        2 0.962525982488D+01
0.547159772444D-05 0.000000000000D+00 0.000000000000D+00 0.453165662204D-02 0.000000000000D+00  6 2 21 -11 11 2 21 4 0.80162794D-01 0.13397086D-02 0.20972268D+04 0.18301440D+03 0.28049705D+04 0.14460447D+01  1  2 12  3  6  5        2 0.319267840024D+01
-.497512450759D-03 0.000000000000D+00 0.000000000000D+00 0.445991646120D-02 0.000000000000D+00  6 2 21 -11 11 2 21 4 0.80162794D-01 0.13397086D-02 0.20575920D+04 0.21224214D+03 0.28687929D+04 0.14345530D+01  1  2  4  3  6  5        2 -.281720443361D+03
-.468552626463D-03 0.000000000000D+00 0.000000000000D+00 0.445991646120D-02 0.000000000000D+00  6 2 21 -11 11 2 21 4 0.80162794D-01 0.13397086D-02 0.20575920D+04 0.21224214D+03 0.28687929D+04 0.14345530D+01  1  2  5  3  6  5        2 -.265321708962D+03
0.883446147332D-03 0.000000000000D+00 -.000000000000D+00 0.445991646120D-02 0.000000000000D+00  6 2 21 -11 11 2 21 4 0.80162794D-01 0.13397086D-02 0.20575920D+04 0.21224214D+03 0.28687929D+04 0.14345530D+01  1  2  6  3  6  5        2 0.500258516008D+03
0.786246046466D-03 0.000000000000D+00 0.000000000000D+00 0.445991646120D-02 0.258852492622D-02  6 2 21 -11 11 2 21 4 0.80162794D-01 0.13397086D-02 0.20972268D+04 0.18301440D+03 0.28049705D+04 0.14460447D+01  1  2 11  3  6  5        2 0.458774730207D+03
  </mgrwgt>
  </event>
  <event npLO=' -1 ' npNLO=' 1 '>
  7     66 0.13243562E+02 0.23778825E+02 0.75467711E-02 0.14247303E+00
        4 -1    0    0  502    0 0.00000000E+00 0.00000000E+00 0.11082220E+03 0.11082220E+03 0.00000000E+00 0.0000E+00 0.9000E+01
        1 -1    0    0  501    0 0.00000000E+00 0.00000000E+00 -.10000872E+03 0.10000872E+03 0.00000000E+00 0.0000E+00 0.9000E+01
       23  2    1    2    0    0 0.20269992E+02 -.13991768E+02 0.67548691E+02 0.11830916E+03 0.93955256E+02 0.0000E+00 0.0000E+00
      -13  1    3    3    0    0 -.45103890E+01 -.51478319E+02 0.30020284E+02 0.59762684E+02 0.00000000E+00 0.0000E+00 0.9000E+01
       13  1    3    3    0    0 0.24780381E+02 0.37486551E+02 0.37528408E+02 0.58546479E+02 0.00000000E+00 0.0000E+00 0.9000E+01
        4  1    1    2  501    0 0.87142173E+01 0.78217026E+01 0.12550509E+02 0.17164845E+02 0.00000000E+00 0.0000E+00 0.9000E+01
        1  1    1    2  502    0 -.28984209E+02 0.61700658E+01 -.69285717E+02 0.75356915E+02 0.00000000E+00 0.0000E+00 0.9000E+01
#aMCatNLO 2  0  0  2  5 0.19934801D+02 0.00000000D+00  -5  6  0 0.00000000D+00 0.00000000D+00 0.00000000D+00 0.00000000D+00 0.00000000D+00
  <mgrwgt>
 0.1872205970D+01    1    2    0
 0.525812956177231D+02 0.000000000000000D+00 0.000000000000000D+00 0.525812956177231D+02
 0.525812956177231D+02 0.000000000000000D+00 0.000000000000000D+00 -.525812956177231D+02
 0.523455624207877D+02 -.186279565879141D+02 -.484730165058280D+02 -.658967444818728D+01
 0.422068845000577D+02 0.129811991161444D+02 0.399983228738612D+02 0.361161127290472D+01
 0.106101443146009D+02 0.564675747176970D+01 0.847469363196675D+01 0.297806317528256D+01
 0.000000000000000D+00 -.000000000000000D+00 0.000000000000000D+00 -.000000000000000D+00
 0.561675523155236D+02 0.000000000000000D+00 0.000000000000000D+00 0.561675523155236D+02
 0.197323652318654D+03 0.000000000000000D+00 0.000000000000000D+00 -.197323652318654D+03
 0.520939992692246D+02 -.451038895389415D+01 -.514783191451845D+02 -.658967444818728D+01
 0.450816204664907D+02 0.247803808878502D+02 0.374865508009367D+02 0.361161127290472D+01
 0.120824449259057D+02 0.871421733285914D+01 0.782170258877616D+01 0.297806317528256D+01
 0.144233139972557D+03 -.289842092668152D+02 0.617006575547167D+01 -.141156100003131D+03
0.118001697041D-02 0.000000000000D+00 0.000000000000D+00 0.245761283739D-03 0.111737305958D-04  6 4 1 -13 13 4 1 4 0.17049570D-01 0.15385957D-01 0.47579369D+04 0.86536622D+03 0.40876788D+04 0.13380467D+01  1  2  1  6  6  2       21 0.187220597003D+01
  </mgrwgt>
  </event>
  <event npLO=' -1 ' npNLO=' 1 '>
  6     66 0.13243562E+02 0.14588123E+02 0.75467711E-02 0.11590969E+00
        2 -1    0    0  502    0 0.00000000E+00 0.00000000E+00 0.68478511E+02 0.68478511E+02 0.00000000E+00 0.0000E+00 0.9000E+01
       21 -1    0    0  501  502 0.00000000E+00 0.00000000E+00 -.13484154E+03 0.13484154E+03 0.00000000E+00 0.0000E+00 0.9000E+01
       23  2    1    2    0    0 -.13670770E+02 -.50914993E+01 -.11865381E+03 0.14903250E+03 0.88989585E+02 0.0000E+00 0.0000E+00
      -11  1    3    3    0    0 -.27859947E+02 -.21397922E+02 -.12218121E+03 0.12713102E+03 0.00000000E+00 0.0000E+00 0.9000E+01
       11  1    3    3    0    0 0.14189177E+02 0.16306423E+02 0.35274043E+01 0.21901478E+02 0.00000000E+00 0.0000E+00 0.9000E+01
        2  1    1    2  501    0 0.13670770E+02 0.50914993E+01 0.52290776E+02 0.54287555E+02 0.00000000E+00 0.0000E+00 0.9000E+01
#aMCatNLO 1  0  0  1  2 0.21232907D+02 0.00000000D+00  -5  6  0 0.00000000D+00 0.00000000D+00 0.00000000D+00 0.00000000D+00 0.00000000D+00
  <mgrwgt>
 0.1575362214D+03    3    2    0
 0.960923940010870D+02 0.000000000000000D+00 0.000000000000000D+00 0.960923940010870D+02
 0.960923940010870D+02 0.000000000000000D+00 0.000000000000000D+00 -.960923940010870D+02
 0.923068401301657D+02 -.278599470624093D+02 -.213979219144744D+02 -.853610275373825D+02
 0.243885014785232D+02 0.141891769206219D+02 0.163064226093478D+02 0.112945493211801D+02
 0.754894463934851D+02 0.136707701417874D+02 0.509149930512665D+01 0.740664782162023D+02
 0.000000000000000D+00 -.000000000000000D+00 0.000000000000000D+00 -.000000000000000D+00
 0.147416643859134D+03 0.000000000000000D+00 0.000000000000000D+00 0.147416643859134D+03
 0.230363081841901D+03 0.000000000000000D+00 0.000000000000000D+00 -.230363081841901D+03
 0.122920702452184D+03 -.254072283483694D+02 -.847199316380417D+02 -.853610275373825D+02
 0.188666387411480D+02 0.146821096123318D+02 0.358034500459005D+01 0.112945493211801D+02
 0.868808357390744D+02 0.155211310426841D+02 -.426793968388107D+02 0.740664782162023D+02
 0.149111548768628D+03 -.479601230664654D+01 0.123818983472262D+03 -.829464379827673D+02
0.483658917092D-02 0.000000000000D+00 0.000000000000D+00 0.133245242841D-03 0.000000000000D+00  6 2 21 -11 11 2 21 2 0.10535155D-01 0.20744853D-01 0.12720882D+04 0.21281353D+03 0.27439529D+04 0.14343470D+01  1  2  2  1  6  1        2 0.160632818568D+03
0.881292453235D-04 0.234815116887D-03 0.106550257632D-04 0.133245242841D-03 0.000000000000D+00  6 2 21 -11 11 2 21 4 0.10535155D-01 0.20744853D-01 0.12720882D+04 0.21281353D+03 0.27439529D+04 0.14343470D+01  1  2  3  1  6  1        2 -.221063316079D+02
0.278209857295D-03 0.000000000000D+00 0.000000000000D+00 0.133245242841D-03 0.000000000000D+00  6 2 21 -11 11 2 21 4 0.10535155D-01 0.20744853D-01 0.12720882D+04 0.21281353D+03 0.27439529D+04 0.14343470D+01  1  2 15  1  6  1        2 0.190097344711D+02
  </mgrwgt>
  </event>
  <event npLO=' -1 ' npNLO=' 1 '>
  6     66 0.13243562E+02 0.14532566E+02 0.75467711E-02 0.16723339E+00
        2 -1    0    0  502    0 0.00000000E+00 0.00000000E+00 0.34528016E+03 0.34528016E+03 0.00000000E+00 0.0000E+00 0.9000E+01
       21 -1    0    0  501  502 0.00000000E+00 0.00000000E+00 -.96012323E+01 0.96012323E+01 0.00000000E+00 0.0000E+00 0.9000E+01
       23  2    1    2    0    0 0.14532563E+02 -.92830121E-02 0.32205651E+03 0.33496241E+03 0.90929785E+02 0.0000E+00 0.0000E+00
      -13  1    3    3    0    0 0.41472216E+02 -.16895539E+02 0.27200136E+03 0.27566309E+03 0.00000000E+00 0.0000E+00 0.9000E+01
       13  1    3    3    0    0 -.26939654E+02 0.16886256E+02 0.50055157E+02 0.59299320E+02 0.00000000E+00 0.0000E+00 0.9000E+01
        2  1    1    2  501    0 -.14532563E+02 0.92830121E-02 0.13622411E+02 0.19918974E+02 0.00000000E+00 0.0000E+00 0.9000E+01
#aMCatNLO 1  0  0  2  5 0.12923070D+02 0.00000000D+00  -5  6  0 0.00000000D+00 0.00000000D+00 0.00000000D+00 0.00000000D+00 0.00000000D+00
  <mgrwgt>
 0.8957757920D+03   38    2    0
 0.575770351677003D+02 0.000000000000000D+00 0.000000000000000D+00 0.575770351677003D+02
 0.575770351677003D+02 0.000000000000000D+00 0.000000000000000D+00 -.575770351677003D+02
 0.566421941017817D+02 0.414722163730604D+02 -.168955386962504D+02 0.346833417353847D+02
 0.368355513454901D+02 -.269396538077088D+02 0.168862556841713D+02 -.186001952843465D+02
 0.216763248881289D+02 -.145325625653516D+02 0.928301207907250D-02 -.160831464510382D+02
 0.000000000000000D+00 0.000000000000000D+00 -.000000000000000D+00 -.000000000000000D+00
 0.606628237241157D+02 0.000000000000000D+00 0.000000000000000D+00 0.606628237241157D+02
 0.695483255199687D+02 0.000000000000000D+00 0.000000000000000D+00 -.695483255199687D+02
 0.525877267449468D+02 0.370558610104019D+02 -.137621936858005D+02 0.346833417353847D+02
 0.401720297496526D+02 -.300532040245226D+02 0.190952778835911D+02 -.186001952843465D+02
 0.229617133452063D+02 -.163373559589765D+02 0.128975976506468D+01 -.160831464510382D+02
 0.144896794042786D+02 0.933469897309718D+01 -.662284396285526D+01 -.888550179585299D+01
0.379373755671D-03 0.000000000000D+00 0.000000000000D+00 0.222161369739D-02 0.000000000000D+00  6 2 21 -13 13 2 21 2 0.53120024D-01 0.14771127D-02 0.20752037D+04 0.21119546D+03 0.28417609D+04 0.14349319D+01  1  2  2  2  6  2       21 0.139227829133D+03
0.175171304330D-04 0.184184948594D-04 0.835761938368D-06 0.222161369739D-02 0.000000000000D+00  6 2 21 -13 13 2 21 4 0.53120024D-01 0.14771127D-02 0.20752037D+04 0.21119546D+03 0.28417609D+04 0.14349319D+01  1  2  3  2  6  2       21 -.183675816236D+02
0.369797389826D-04 0.000000000000D+00 0.000000000000D+00 0.222161369739D-02 0.000000000000D+00  6 2 21 -13 13 2 21 4 0.53120024D-01 0.14771127D-02 0.20752037D+04 0.21119546D+03 0.28417609D+04 0.14349319D+01  1  2 15  2  6  2       21 0.279437824625D+02
0.546611889724D-03 0.000000000000D+00 0.000000000000D+00 0.226745577571D-02 0.000000000000D+00  6 2 21 -13 13 2 21 4 0.53120024D-01 0.18798549D-02 0.26506583D+04 0.17481056D+03 0.27619014D+04 0.14496609D+01  1  2 12  2  6  2       21 0.300721568335D+03
0.546611889724D-03 0.000000000000D+00 0.000000000000D+00 0.226745577571D-02 0.000000000000D+00  6 2 21 -13 13 2 21 4 0.53120024D-01 0.18798549D-02 0.26506583D+04 0.17481056D+03 0.27619014D+04 0.14496609D+01  1  2 12  2  6  2       21 0.300721568335D+03
-.310052641162D-03 0.000000000000D+00 0.000000000000D+00 0.222161369739D-02 0.000000000000D+00  6 2 21 -13 13 2 21 4 0.53120024D-01 0.14771127D-02 0.20752037D+04 0.21119546D+03 0.28417609D+04 0.14349319D+01  1  2  4  2  6  2       21 -.234291636310D+03
-.185545315514D-02 0.000000000000D+00 -.471413052960D-03 0.222161369739D-02 0.000000000000D+00  6 2 21 -13 13 2 21 4 0.53120024D-01 0.18794961D-02 0.20752037D+04 0.21119546D+03 0.28417609D+04 0.14349319D+01  1  2  5  2  6  2       21 -.106105605704D+04
0.178464808233D-02 0.000000000000D+00 0.420888194848D-03 0.222161369739D-02 0.000000000000D+00  6 2 21 -13 13 2 21 4 0.53120024D-01 0.14771127D-02 0.20752037D+04 0.21119546D+03 0.28417609D+04 0.14349319D+01  1  2  6  2  6  2       21 0.144855335607D+04
0.393522504224D-04 0.000000000000D+00 0.000000000000D+00 0.226745577571D-02 0.000000000000D+00  6 2 -1 -13 13 2 -1 4 0.53120024D-01 0.18798549D-02 0.26506583D+04 0.17481056D+03 0.27619014D+04 0.14496609D+01  1  2 12  5  6  2       21 0.120155933744D+01
0.393522504224D-04 0.000000000000D+00 0.000000000000D+00 0.226745577571D-02 0.000000000000D+00  6 2 -3 -13 13 2 -3 4 0.53120024D-01 0.18798549D-02 0.26506583D+04 0.17481056D+03 0.27619014D+04 0.14496609D+01  1  2 12  5  6  2       21 0.110988322838D+01
0.393522504224D-04 0.000000000000D+00 0.000000000000D+00 0.226745577571D-02 0.000000000000D+00  6 2 -5 -13 13 2 -5 4 0.53120024D-01 0.18798549D-02 0.26506583D+04 0.17481056D+03 0.27619014D+04 0.14496609D+01  1  2 12  5  6  2       21 0.570699608640D+00
0.393522504224D-04 0.000000000000D+00 0.000000000000D+00 0.226745577571D-02 0.000000000000D+00  6 2 -1 -13 13 2 -1 4 0.53120024D-01 0.18798549D-02 0.26506583D+04 0.17481056D+03 0.27619014D+04 0.14496609D+01  1  2 12  5  6  2       21 0.120155933744D+01
0.393522504224D-04 0.000000000000D+00 0.000000000000D+00 0.226745577571D-02 0.000000000000D+00  6 2 -3 -13 13 2 -3 4 0.53120024D-01 0.18798549D-02 0.26506583D+04 0.17481056D+03 0.27619014D+04 0.14496609D+01  1  2 12  5  6  2       21 0.110988322838D+01
0.393522504224D-04 0.000000000000D+00 0.000000000000D+00 0.226745577571D-02 0.000000000000D+00  6 2 -5 -13 13 2 -5 4 0.53120024D-01 0.18798549D-02 0.26506583D+04 0.17481056D+03 0.27619014D+04 0.14496609D+01  1  2 12  5  6  2       21 0.570699608640D+00
-.102302921518D-03 0.000000000000D+00 -.339056257156D-04 0.222161369739D-02 0.000000000000D+00  6 2 -1 -13 13 2 -1 4 0.53120024D-01 0.18794961D-02 0.20752037D+04 0.21119546D+03 0.28417609D+04 0.14349319D+01  1  2  5  5  6  2       21 -.331940911494D+01
-.102302921518D-03 0.000000000000D+00 -.339056257156D-04 0.222161369739D-02 0.000000000000D+00  6 2 -3 -13 13 2 -3 4 0.53120024D-01 0.18794961D-02 0.20752037D+04 0.21119546D+03 0.28417609D+04 0.14349319D+01  1  2  5  5  6  2       21 -.306672493244D+01
-.102302921518D-03 0.000000000000D+00 -.339056257156D-04 0.222161369739D-02 0.000000000000D+00  6 2 -5 -13 13 2 -5 4 0.53120024D-01 0.18794961D-02 0.20752037D+04 0.21119546D+03 0.28417609D+04 0.14349319D+01  1  2  5  5  6  2       21 -.158123841475D+01
0.393522504224D-04 0.000000000000D+00 0.000000000000D+00 0.226745577571D-02 0.000000000000D+00  6 2 1 -13 13 2 1 4 0.53120024D-01 0.18798549D-02 0.26506583D+04 0.17481056D+03 0.27619014D+04 0.14496609D+01  1  2 12  6  6  2       21 0.126640505526D+01
0.393522504224D-04 0.000000000000D+00 0.000000000000D+00 0.226745577571D-02 0.000000000000D+00  6 2 3 -13 13 2 3 4 0.53120024D-01 0.18798549D-02 0.26506583D+04 0.17481056D+03 0.27619014D+04 0.14496609D+01  1  2 12  6  6  2       21 0.110759897362D+01
0.393522504224D-04 0.000000000000D+00 0.000000000000D+00 0.226745577571D-02 0.000000000000D+00  6 2 5 -13 13 2 5 4 0.53120024D-01 0.18798549D-02 0.26506583D+04 0.17481056D+03 0.27619014D+04 0.14496609D+01  1  2 12  6  6  2       21 0.570693582415D+00
0.393522504224D-04 0.000000000000D+00 0.000000000000D+00 0.226745577571D-02 0.000000000000D+00  6 2 1 -13 13 2 1 4 0.53120024D-01 0.18798549D-02 0.26506583D+04 0.17481056D+03 0.27619014D+04 0.14496609D+01  1  2 12  6  6  2       21 0.126640505526D+01
0.393522504224D-04 0.000000000000D+00 0.000000000000D+00 0.226745577571D-02 0.000000000000D+00  6 2 3 -13 13 2 3 4 0.53120024D-01 0.18798549D-02 0.26506583D+04 0.17481056D+03 0.27619014D+04 0.14496609D+01  1  2 12  6  6  2       21 0.110759897362D+01
0.393522504224D-04 0.000000000000D+00 0.000000000000D+00 0.226745577571D-02 0.000000000000D+00  6 2 5 -13 13 2 5 4 0.53120024D-01 0.18798549D-02 0.26506583D+04 0.17481056D+03 0.27619014D+04 0.14496609D+01  1  2 12  6  6  2       21 0.570693582415D+00
-.102302921518D-03 0.000000000000D+00 -.339056257156D-04 0.222161369739D-02 0.000000000000D+00  6 2 1 -13 13 2 1 4 0.53120024D-01 0.18794961D-02 0.20752037D+04 0.21119546D+03 0.28417609D+04 0.14349319D+01  1  2  5  6  6  2       21 -.349829019061D+01
-.102302921518D-03 0.000000000000D+00 -.339056257156D-04 0.222161369739D-02 0.000000000000D+00  6 2 3 -13 13 2 3 4 0.53120024D-01 0.18794961D-02 0.20752037D+04 0.21119546D+03 0.28417609D+04 0.14349319D+01  1  2  5  6  6  2       21 -.306043593357D+01
-.102302921518D-03 0.000000000000D+00 -.339056257156D-04 0.222161369739D-02 0.000000000000D+00  6 2 5 -13 13 2 5 4 0.53120024D-01 0.18794961D-02 0.20752037D+04 0.21119546D+03 0.28417609D+04 0.14349319D+01  1  2  5  6  6  2       21 -.158122135727D+01
0.393522504224D-04 0.000000000000D+00 0.000000000000D+00 0.226745577571D-02 0.000000000000D+00  6 2 -2 -13 13 2 -2 4 0.53120024D-01 0.18798549D-02 0.26506583D+04 0.17481056D+03 0.27619014D+04 0.14496609D+01  1  2 12  7  6  2       21 0.120260164039D+01
0.393522504224D-04 0.000000000000D+00 0.000000000000D+00 0.226745577571D-02 0.000000000000D+00  6 2 -2 -13 13 2 -2 4 0.53120024D-01 0.18798549D-02 0.26506583D+04 0.17481056D+03 0.27619014D+04 0.14496609D+01  1  2 12  7  6  2       21 0.120260164039D+01
-.102302921518D-03 0.000000000000D+00 -.339056257156D-04 0.222161369739D-02 0.000000000000D+00  6 2 -2 -13 13 2 -2 4 0.53120024D-01 0.18794961D-02 0.20752037D+04 0.21119546D+03 0.28417609D+04 0.14349319D+01  1  2  5  7  6  2       21 -.332223094471D+01
0.393522573329D-04 0.000000000000D+00 0.000000000000D+00 0.226745577571D-02 0.000000000000D+00  6 2 2 -13 13 2 2 4 0.53120024D-01 0.18798549D-02 0.26506583D+04 0.17481056D+03 0.27619014D+04 0.14496609D+01  1  2 12  8  6  2       21 0.131141176550D+01
0.393522573329D-04 0.000000000000D+00 0.000000000000D+00 0.226745577571D-02 0.000000000000D+00  6 2 2 -13 13 2 2 4 0.53120024D-01 0.18798549D-02 0.26506583D+04 0.17481056D+03 0.27619014D+04 0.14496609D+01  1  2 12  8  6  2       21 0.131141176550D+01
-.102302939483D-03 0.000000000000D+00 -.339056316697D-04 0.222161345994D-02 0.000000000000D+00  6 2 2 -13 13 2 2 4 0.53120024D-01 0.18794961D-02 0.20752037D+04 0.21119567D+03 0.28417613D+04 0.14349318D+01  1  2  5  8  6  2       21 -.362244837332D+01
0.393522504224D-04 0.000000000000D+00 0.000000000000D+00 0.226745577571D-02 0.000000000000D+00  6 2 -4 -13 13 2 -4 4 0.53120024D-01 0.18798549D-02 0.26506583D+04 0.17481056D+03 0.27619014D+04 0.14496609D+01  1  2 12  9  6  2       21 0.853629423217D+00
0.393522504224D-04 0.000000000000D+00 0.000000000000D+00 0.226745577571D-02 0.000000000000D+00  6 2 -4 -13 13 2 -4 4 0.53120024D-01 0.18798549D-02 0.26506583D+04 0.17481056D+03 0.27619014D+04 0.14496609D+01  1  2 12  9  6  2       21 0.853629423217D+00
-.102302921518D-03 0.000000000000D+00 -.339056257156D-04 0.222161369739D-02 0.000000000000D+00  6 2 -4 -13 13 2 -4 4 0.53120024D-01 0.18794961D-02 0.20752037D+04 0.21119546D+03 0.28417609D+04 0.14349319D+01  1  2  5  9  6  2       21 -.236063840634D+01
0.393522504224D-04 0.000000000000D+00 0.000000000000D+00 0.226745577571D-02 0.000000000000D+00  6 2 4 -13 13 2 4 4 0.53120024D-01 0.18798549D-02 0.26506583D+04 0.17481056D+03 0.27619014D+04 0.14496609D+01  1  2 12 10  6  2       21 0.853611823192D+00
0.393522504224D-04 0.000000000000D+00 0.000000000000D+00 0.226745577571D-02 0.000000000000D+00  6 2 4 -13 13 2 4 4 0.53120024D-01 0.18798549D-02 0.26506583D+04 0.17481056D+03 0.27619014D+04 0.14496609D+01  1  2 12 10  6  2       21 0.853611823192D+00
-.102302921518D-03 0.000000000000D+00 -.339056257156D-04 0.222161369739D-02 0.000000000000D+00  6 2 4 -13 13 2 4 4 0.53120024D-01 0.18794961D-02 0.20752037D+04 0.21119546D+03 0.28417609D+04 0.14349319D+01  1  2  5 10  6  2       21 -.236058858728D+01
  </mgrwgt>
  </event>
  <event npLO=' -1 ' npNLO=' 1 '>
  7     66 0.13243562E+02 0.12078766E+02 0.75467711E-02 0.17500377E+00
       21 -1    0    0  502  503 0.00000000E+00 0.00000000E+00 0.10779181E+04 0.10779181E+04 0.00000000E+00 0.0000E+00 0.9000E+01
       21 -1    0    0  501  502 0.00000000E+00 0.00000000E+00 -.28482037E+01 0.28482037E+01 0.00000000E+00 0.0000E+00 0.9000E+01
       23  2    1    2    0    0 -.13594360E+02 0.51115991E+01 0.83479906E+03 0.83997284E+03 0.91945470E+02 0.0000E+00 0.0000E+00
      -13  1    3    3    0    0 -.73647921E+01 0.31506250E+02 0.75496816E+03 0.75566117E+03 0.00000000E+00 0.0000E+00 0.9000E+01
       13  1    3    3    0    0 -.62295682E+01 -.26394651E+02 0.79830900E+02 0.84311670E+02 0.00000000E+00 0.0000E+00 0.9000E+01
        2  1    1    2  501    0 0.55406013E+01 0.11449239E+01 0.85393940E+02 0.85581155E+02 0.00000000E+00 0.0000E+00 0.9000E+01
       -2  1    1    2    0  503 0.80537590E+01 -.62565230E+01 0.15487685E+03 0.15521226E+03 0.00000000E+00 0.0000E+00 0.9000E+01
#aMCatNLO 2  0  0  1  2 0.46379712D+00 0.00000000D+00  -5  6  0 0.00000000D+00 0.00000000D+00 0.00000000D+00 0.00000000D+00 0.00000000D+00
  <mgrwgt>
 0.5509321057D+03    1    2    0
 0.494748341144592D+02 0.000000000000000D+00 0.000000000000000D+00 0.494748341144592D+02
 0.494748341144592D+02 0.000000000000000D+00 0.000000000000000D+00 -.494748341144592D+02
 0.447941671582936D+02 -.363346166984087D+01 0.286075841899456D+02 0.342771278626744D+02
 0.473992002795844D+02 -.243886924744346D+01 -.293394365607454D+02 -.371474570628464D+02
 0.675630079104039D+01 0.607233091728433D+01 0.731852370799842D+00 0.287032920017209D+01
 0.000000000000000D+00 0.000000000000000D+00 -.000000000000000D+00 0.000000000000000D+00
 0.580928176024767D+02 0.000000000000000D+00 0.000000000000000D+00 0.580928176024767D+02
 0.528487045633250D+02 0.000000000000000D+00 0.000000000000000D+00 -.528487045633250D+02
 0.471360312200081D+02 -.736479214317120D+01 0.315062498775614D+02 0.342771278626744D+02
 0.459936808283733D+02 -.622956816268142D+01 -.263946507916426D+02 -.371474570628464D+02
 0.634412349411650D+01 0.554060126575450D+01 0.114492392985738D+01 0.287032920017209D+01
 0.114676866233038D+02 0.805375904009812D+01 -.625652301577624D+01 0.524411303915174D+01
0.552064405196D-03 0.000000000000D+00 0.000000000000D+00 0.144169333348D-02 0.112603114308D-04  6 21 21 -13 13 2 -2 4 0.16583355D+00 0.43818518D-03 0.14187073D+04 0.11649283D+03 0.26713379D+04 0.14829572D+01  1  2  1  4  6  1        2 0.550932105734D+03
  </mgrwgt>
  </event>
  <event npLO=' -1 ' npNLO=' 1 '>
  7     66 -.13243562E+02 0.12391810E+02 0.75467711E-02 0.16671605E+00
        2 -1    0    0  502    0 0.00000000E+00 0.00000000E+00 0.49478749E+02 0.49478749E+02 0.00000000E+00 0.0000E+00 0.9000E+01
       21 -1    0    0  503  502 0.00000000E+00 0.00000000E+00 -.59898378E+02 0.59898378E+02 0.00000000E+00 0.0000E+00 0.9000E+01
       23  2    1    2    0    0 -.10561734E+02 -.49825335E+01 -.55594439E+01 0.90140991E+02 0.89208267E+02 0.0000E+00 0.0000E+00
      -11  1    3    3    0    0 -.12754405E+02 -.20838275E+02 -.42981119E+02 0.49439712E+02 0.00000000E+00 0.0000E+00 0.9000E+01
       11  1    3    3    0    0 0.21926711E+01 0.15855742E+02 0.37421675E+02 0.40701279E+02 0.00000000E+00 0.0000E+00 0.9000E+01
        2  1    1    2  501    0 0.13278086E+02 0.39319581E+01 -.70999671E+01 0.15562050E+02 0.00000000E+00 0.0000E+00 0.9000E+01
       21  1    1    2  503  501 -.27163521E+01 0.10505754E+01 0.22397824E+01 0.36740853E+01 0.00000000E+00 0.0000E+00 0.9000E+01
#aMCatNLO 2  0  0  2  5 0.71288973D+01 0.00000000D+00  -5  6  0 0.00000000D+00 0.00000000D+00 0.00000000D+00 0.00000000D+00 0.00000000D+00
  <mgrwgt>
 -.2784671727D+03    4    2    0
 0.524509055860105D+02 0.000000000000000D+00 0.000000000000000D+00 0.524509055860105D+02
 0.524509055860105D+02 0.000000000000000D+00 0.000000000000000D+00 -.524509055860105D+02
 0.447519973403728D+02 -.139112046647056D+02 -.203908722064871D+02 -.373287018444002D+02
 0.456301646305477D+02 0.101288802523751D+01 0.163120344787143D+02 0.426028580405640D+02
 0.145196492011004D+02 0.128983166394681D+02 0.407883772777273D+01 -.527415619616389D+01
 0.000000000000000D+00 -.000000000000000D+00 0.000000000000000D+00 0.000000000000000D+00
 0.558061888936542D+02 0.000000000000000D+00 0.000000000000000D+00 0.558061888936542D+02
 0.531069555773133D+02 0.000000000000000D+00 0.000000000000000D+00 -.531069555773133D+02
 0.446132330539076D+02 -.127544054116388D+02 -.208382754739856D+02 -.373287018444002D+02
 0.455106127656885D+02 0.219267106558480D+01 0.158557420098254D+02 0.426028580405640D+02
 0.148183871691944D+02 0.132780864717605D+02 0.393195808256677D+01 -.527415619616389D+01
 0.397091148217703D+01 -.271635212570655D+01 0.105057538159339D+01 0.269923331634092D+01
-.410194920847D-03 0.000000000000D+00 0.000000000000D+00 0.650506595686D-03 0.000000000000D+00  6 2 21 -11 11 2 21 4 0.71544455D-02 0.98046270D-02 0.81792598D+03 0.18602883D+03 0.26979791D+04 0.14447635D+01  1  2 13  2  6  2       21 -.163648695622D+03
-.410194920847D-03 0.000000000000D+00 0.000000000000D+00 0.650506595686D-03 0.000000000000D+00  6 2 21 -11 11 2 21 4 0.71544455D-02 0.98046270D-02 0.81792598D+03 0.18602883D+03 0.26979791D+04 0.14447635D+01  1  2 13  2  6  2       21 -.163648695622D+03
-.202786497805D-04 0.000000000000D+00 0.000000000000D+00 0.651665057673D-03 0.000000000000D+00  6 2 21 -11 11 2 21 4 0.71544455D-02 0.91012970D-02 0.74407621D+03 0.18300349D+03 0.26913282D+04 0.14460494D+01  1  2  8  2  6  2       21 -.916226118677D+01
0.141922584574D-03 0.000000000000D+00 0.000000000000D+00 0.651665057673D-03 0.918986979668D-03  6 2 21 -11 11 2 21 4 0.76121152D-02 0.92151350D-02 0.81792598D+03 0.18602883D+03 0.26979791D+04 0.14447635D+01  1  2  1  2  6  2       21 0.579924797473D+02
  </mgrwgt>
  </event>
  <event npLO=' -1 ' npNLO=' 1 '>
  6     66 -.13243562E+02 0.28933454E+02 0.75467711E-02 0.12007895E+00
        2 -1    0    0  502    0 0.00000000E+00 0.00000000E+00 0.43567647E+03 0.43567647E+03 0.00000000E+00 0.0000E+00 0.9000E+01
       21 -1    0    0  501  502 0.00000000E+00 0.00000000E+00 -.16297179E+02 0.16297179E+02 0.00000000E+00 0.0000E+00 0.9000E+01
       23  2    1    2    0    0 0.27376176E+02 0.93642799E+01 0.13825946E+03 0.16936879E+03 0.93450334E+02 0.0000E+00 0.0000E+00
      -13  1    3    3    0    0 -.54141251E+01 0.37436259E+02 0.11343242E+03 0.11957299E+03 0.00000000E+00 0.0000E+00 0.9000E+01
       13  1    3    3    0    0 0.32790301E+02 -.28071979E+02 0.24827036E+02 0.49795799E+02 0.00000000E+00 0.0000E+00 0.9000E+01
        2  1    1    2  501    0 -.27376176E+02 -.93642799E+01 0.28111983E+03 0.28260486E+03 0.00000000E+00 0.0000E+00 0.9000E+01
#aMCatNLO 1  0  0  2  1 0.83632332D+02 0.00000000D+00  -5  6  0 0.00000000D+00 0.00000000D+00 0.00000000D+00 0.00000000D+00 0.00000000D+00
  <mgrwgt>
 -.3622330820D+03   14    2    0
 0.842632622096026D+02 0.000000000000000D+00 0.000000000000000D+00 0.842632622096026D+02
 0.842632622096026D+02 0.000000000000000D+00 0.000000000000000D+00 -.842632622096026D+02
 0.384072067208017D+02 -.541412509236230D+01 0.374362587339038D+02 0.665787575634034D+01
 0.717658195090054D+02 0.327903013578301D+02 -.280719788159613D+02 -.573331753177690D+02
 0.583534981893980D+02 -.273761762654679D+02 -.936427991794241D+01 0.506752995614287D+02
 0.000000000000000D+00 -.000000000000000D+00 0.000000000000000D+00 -.000000000000000D+00
 0.972747301875655D+02 0.000000000000000D+00 0.000000000000000D+00 0.972747301875655D+02
 0.558298029500113D+03 0.000000000000000D+00 0.000000000000000D+00 -.558298029500113D+03
 0.318313487859379D+02 0.884185304280145D+01 0.298450848669370D+02 0.665787575634034D+01
 0.100239112366785D+03 0.677013061510068D+02 -.466617595200878D+02 -.573331753177690D+02
 0.552728554650480D+02 -.431398767702606D+01 -.216446777740400D+02 0.506752995614287D+02
 0.468229443069907D+03 -.722291715167822D+02 0.384613524271909D+02 -.461023299312547D+03
0.331291901406D-03 0.000000000000D+00 0.000000000000D+00 0.871823357202D-04 0.000000000000D+00  6 2 21 -13 13 2 21 2 0.67027149D-01 0.25072583D-02 0.30208462D+04 0.83714560D+03 0.40170501D+04 0.13400954D+01  1  2  2  2  6  2       21 0.388175698822D+02
-.396553481796D-04 0.160841336328D-04 0.729837416387D-06 0.871823357202D-04 0.000000000000D+00  6 2 21 -13 13 2 21 4 0.67027149D-01 0.25072583D-02 0.30208462D+04 0.83714560D+03 0.40170501D+04 0.13400954D+01  1  2  3  2  6  2       21 -.126437754970D+02
0.238549728030D-04 0.000000000000D+00 0.000000000000D+00 0.871823357202D-04 0.000000000000D+00  6 2 21 -13 13 2 21 4 0.67027149D-01 0.25072583D-02 0.30208462D+04 0.83714560D+03 0.40170501D+04 0.13400954D+01  1  2 15  2  6  2       21 0.501958551941D+01
-.365946143641D-01 0.000000000000D+00 -.402751267783D-02 0.871823357202D-04 0.000000000000D+00  6 2 21 -13 13 2 21 4 0.67027149D-01 0.18887660D-01 0.30208462D+04 0.83714560D+03 0.40170501D+04 0.13400954D+01  1  2  5  2  6  2       21 -.306686993341D+03
-.157978924029D-01 0.000000000000D+00 -.173689116776D-02 0.871823357202D-04 0.000000000000D+00  6 2 -1 -13 13 2 -1 4 0.67027149D-01 0.18887660D-01 0.30208462D+04 0.83714560D+03 0.40170501D+04 0.13400954D+01  1  2  5  5  6  2       21 -.107907232561D+02
-.157978924029D-01 0.000000000000D+00 -.173689116776D-02 0.871823357202D-04 0.000000000000D+00  6 2 -3 -13 13 2 -3 4 0.67027149D-01 0.18887660D-01 0.30208462D+04 0.83714560D+03 0.40170501D+04 0.13400954D+01  1  2  5  5  6  2       21 -.820073679777D+01
-.157978924029D-01 0.000000000000D+00 -.173689116776D-02 0.871823357202D-04 0.000000000000D+00  6 2 -5 -13 13 2 -5 4 0.67027149D-01 0.18887660D-01 0.30208462D+04 0.83714560D+03 0.40170501D+04 0.13400954D+01  1  2  5  5  6  2       21 -.332515285871D+01
-.157978924029D-01 0.000000000000D+00 -.173689116776D-02 0.871823357202D-04 0.000000000000D+00  6 2 1 -13 13 2 1 4 0.67027149D-01 0.18887660D-01 0.30208462D+04 0.83714560D+03 0.40170501D+04 0.13400954D+01  1  2  5  6  6  2       21 -.147887307729D+02
-.157978924029D-01 0.000000000000D+00 -.173689116776D-02 0.871823357202D-04 0.000000000000D+00  6 2 3 -13 13 2 3 4 0.67027149D-01 0.18887660D-01 0.30208462D+04 0.83714560D+03 0.40170501D+04 0.13400954D+01  1  2  5  6  6  2       21 -.821850723707D+01
-.157978924029D-01 0.000000000000D+00 -.173689116776D-02 0.871823357202D-04 0.000000000000D+00  6 2 5 -13 13 2 5 4 0.67027149D-01 0.18887660D-01 0.30208462D+04 0.83714560D+03 0.40170501D+04 0.13400954D+01  1  2  5  6  6  2       21 -.331963625557D+01
-.157978924029D-01 0.000000000000D+00 -.173689116776D-02 0.871823357202D-04 0.000000000000D+00  6 2 -2 -13 13 2 -2 4 0.67027149D-01 0.18887660D-01 0.30208462D+04 0.83714560D+03 0.40170501D+04 0.13400954D+01  1  2  5  7  6  2       21 -.100264898261D+02
-.157978924029D-01 0.000000000000D+00 -.173689116776D-02 0.871823437786D-04 0.000000000000D+00  6 2 2 -13 13 2 2 4 0.67027149D-01 0.18887660D-01 0.30208462D+04 0.83714477D+03 0.40170492D+04 0.13400954D+01  1  2  5  8  6  2       21 -.177265897785D+02
-.157978924029D-01 0.000000000000D+00 -.173689116776D-02 0.871823357202D-04 0.000000000000D+00  6 2 -4 -13 13 2 -4 4 0.67027149D-01 0.18887660D-01 0.30208462D+04 0.83714560D+03 0.40170501D+04 0.13400954D+01  1  2  5  9  6  2       21 -.517960706182D+01
-.157978924029D-01 0.000000000000D+00 -.173689116776D-02 0.871823357202D-04 0.000000000000D+00  6 2 4 -13 13 2 4 4 0.67027149D-01 0.18887660D-01 0.30208462D+04 0.83714560D+03 0.40170501D+04 0.13400954D+01  1  2  5 10  6  2       21 -.516329476578D+01
  </mgrwgt>
  </event>
  <event npLO=' -1 ' npNLO=' 1 '>
  6     66 0.13243562E+02 0.12918655E+02 0.75467711E-02 0.16510415E+00
        2 -1    0    0  502    0 0.00000000E+00 0.00000000E+00 0.28928604E+04 0.28928604E+04 0.00000000E+00 0.0000E+00 0.9000E+01
       21 -1    0    0  501  502 0.00000000E+00 0.00000000E+00 -.10818487E+01 0.10818487E+01 0.00000000E+00 0.0000E+00 0.9000E+01
       23  2    1    2    0    0 -.51044954E+01 0.11867425E+02 0.27788879E+04 0.27803148E+04 0.88123146E+02 0.0000E+00 0.0000E+00
      -11  1    3    3    0    0 0.86584223E+01 -.10740320E+02 0.72693327E+02 0.73990827E+02 0.00000000E+00 0.0000E+00 0.9000E+01
       11  1    3    3    0    0 -.13762918E+02 0.22607745E+02 0.27061946E+04 0.27063240E+04 0.00000000E+00 0.0000E+00 0.9000E+01
        2  1    1    2  501    0 0.51044954E+01 -.11867425E+02 0.11289065E+03 0.11362742E+03 0.00000000E+00 0.0000E+00 0.9000E+01
#aMCatNLO 1  0  0  2  5 0.10721077D+02 0.00000000D+00  -5  6  0 0.00000000D+00 0.00000000D+00 0.00000000D+00 0.00000000D+00 0.00000000D+00
  <mgrwgt>
 0.5990012183D+03   38    2    0
 0.559431615418888D+02 0.000000000000000D+00 0.000000000000000D+00 0.559431615418888D+02
 0.559431615418888D+02 0.000000000000000D+00 0.000000000000000D+00 -.559431615418888D+02
 0.349656450253043D+02 0.865842232613342D+01 -.107403195739754D+02 -.321290147733600D+02
 0.556809932967555D+02 -.137629177683565D+02 0.226077446347608D+02 0.489882127816910D+02
 0.212396847617178D+02 0.510449544222306D+01 -.118674250607855D+02 -.168591980083310D+02
 0.000000000000000D+00 0.000000000000000D+00 -.000000000000000D+00 -.000000000000000D+00
 0.595820184398024D+02 0.000000000000000D+00 0.000000000000000D+00 0.595820184398024D+02
 0.607520701958089D+02 0.000000000000000D+00 0.000000000000000D+00 -.607520701958089D+02
 0.340661835099453D+02 0.691134971340501D+01 -.897020143394242D+01 -.321290147733600D+02
 0.576841917510702D+02 -.166319886627021D+02 0.255146612666864D+02 0.489882127816910D+02
 0.204267869461587D+02 0.404999126444827D+01 -.107990109833049D+02 -.168591980083310D+02
 0.815692642843710D+01 0.567064768484884D+01 -.574544884943903D+01 -.117005175600644D+01
0.362066372457D-03 0.000000000000D+00 0.000000000000D+00 0.522099452074D-03 0.000000000000D+00  6 2 21 -11 11 2 21 2 0.44505545D+00 0.16643826D-03 0.70707851D+03 0.16689165D+03 0.26001683D+04 0.14533462D+01  1  2  2  2  6  2       21 0.946977154815D+02
0.872998021561D-05 0.175782260111D-04 0.797633702224D-06 0.522099452074D-03 0.000000000000D+00  6 2 21 -11 11 2 21 4 0.44505545D+00 0.16643826D-03 0.70707851D+03 0.16689165D+03 0.26001683D+04 0.14533462D+01  1  2  3  2  6  2       21 -.862408248459D+01
0.319014569699D-04 0.000000000000D+00 0.000000000000D+00 0.522099452074D-03 0.000000000000D+00  6 2 21 -11 11 2 21 4 0.44505545D+00 0.16643826D-03 0.70707851D+03 0.16689165D+03 0.26001683D+04 0.14533462D+01  1  2 15  2  6  2       21 0.176238177779D+02
0.320434618668D-03 0.000000000000D+00 0.000000000000D+00 0.512841232487D-03 0.000000000000D+00  6 2 21 -11 11 2 21 4 0.44505545D+00 0.19250209D-03 0.94208616D+03 0.19673352D+03 0.26655835D+04 0.14404027D+01  1  2 12  2  6  2       21 0.140030266223D+03
0.320434618668D-03 0.000000000000D+00 0.000000000000D+00 0.512841232487D-03 0.000000000000D+00  6 2 21 -11 11 2 21 4 0.44505545D+00 0.19250209D-03 0.94208616D+03 0.19673352D+03 0.26655835D+04 0.14404027D+01  1  2 12  2  6  2       21 0.140030266223D+03
-.301185443731D-04 0.000000000000D+00 0.000000000000D+00 0.522099452074D-03 0.000000000000D+00  6 2 21 -11 11 2 21 4 0.44505545D+00 0.16643826D-03 0.70707851D+03 0.16689165D+03 0.26001683D+04 0.14533462D+01  1  2  4  2  6  2       21 -.166388556569D+02
-.136576157589D-02 0.000000000000D+00 -.566004087941D-03 0.522099452074D-03 0.000000000000D+00  6 2 21 -11 11 2 21 4 0.44505545D+00 0.19856337D-03 0.70707851D+03 0.16689165D+03 0.26001683D+04 0.14533462D+01  1  2  5  2  6  2       21 -.911141629413D+03
0.139281408587D-02 0.000000000000D+00 0.532243811016D-03 0.522099452074D-03 0.000000000000D+00  6 2 21 -11 11 2 21 4 0.44505545D+00 0.16643826D-03 0.70707851D+03 0.16689165D+03 0.26001683D+04 0.14533462D+01  1  2  6  2  6  2       21 0.115234423404D+04
0.125938871509D-04 0.000000000000D+00 0.000000000000D+00 0.512841232487D-03 0.000000000000D+00  6 2 -1 -11 11 2 -1 4 0.44505545D+00 0.19250209D-03 0.94208616D+03 0.19673352D+03 0.26655835D+04 0.14404027D+01  1  2 12  5  6  2       21 0.253314194199D+00
0.125938871509D-04 0.000000000000D+00 0.000000000000D+00 0.512841232487D-03 0.000000000000D+00  6 2 -3 -11 11 2 -3 4 0.44505545D+00 0.19250209D-03 0.94208616D+03 0.19673352D+03 0.26655835D+04 0.14404027D+01  1  2 12  5  6  2       21 0.244068105990D+00
0.125938871509D-04 0.000000000000D+00 0.000000000000D+00 0.512841232487D-03 0.000000000000D+00  6 2 -5 -11 11 2 -5 4 0.44505545D+00 0.19250209D-03 0.94208616D+03 0.19673352D+03 0.26655835D+04 0.14404027D+01  1  2 12  5  6  2       21 0.147738671412D+00
0.125938871509D-04 0.000000000000D+00 0.000000000000D+00 0.512841232487D-03 0.000000000000D+00  6 2 -1 -11 11 2 -1 4 0.44505545D+00 0.19250209D-03 0.94208616D+03 0.19673352D+03 0.26655835D+04 0.14404027D+01  1  2 12  5  6  2       21 0.253314194199D+00
0.125938871509D-04 0.000000000000D+00 0.000000000000D+00 0.512841232487D-03 0.000000000000D+00  6 2 -3 -11 11 2 -3 4 0.44505545D+00 0.19250209D-03 0.94208616D+03 0.19673352D+03 0.26655835D+04 0.14404027D+01  1  2 12  5  6  2       21 0.244068105990D+00
0.125938871509D-04 0.000000000000D+00 0.000000000000D+00 0.512841232487D-03 0.000000000000D+00  6 2 -5 -11 11 2 -5 4 0.44505545D+00 0.19250209D-03 0.94208616D+03 0.19673352D+03 0.26655835D+04 0.14404027D+01  1  2 12  5  6  2       21 0.147738671412D+00
-.421767304289D-04 0.000000000000D+00 -.279484024056D-04 0.522099452074D-03 0.000000000000D+00  6 2 -1 -11 11 2 -1 4 0.44505545D+00 0.19856337D-03 0.70707851D+03 0.16689165D+03 0.26001683D+04 0.14533462D+01  1  2  5  5  6  2       21 -.157096568430D+01
-.421767304289D-04 0.000000000000D+00 -.279484024056D-04 0.522099452074D-03 0.000000000000D+00  6 2 -3 -11 11 2 -3 4 0.44505545D+00 0.19856337D-03 0.70707851D+03 0.16689165D+03 0.26001683D+04 0.14533462D+01  1  2  5  5  6  2       21 -.151272031972D+01
-.421767304289D-04 0.000000000000D+00 -.279484024056D-04 0.522099452074D-03 0.000000000000D+00  6 2 -5 -11 11 2 -5 4 0.44505545D+00 0.19856337D-03 0.70707851D+03 0.16689165D+03 0.26001683D+04 0.14533462D+01  1  2  5  5  6  2       21 -.912037119132D+00
0.125938871509D-04 0.000000000000D+00 0.000000000000D+00 0.512841232487D-03 0.000000000000D+00  6 2 1 -11 11 2 1 4 0.44505545D+00 0.19250209D-03 0.94208616D+03 0.19673352D+03 0.26655835D+04 0.14404027D+01  1  2 12  6  6  2       21 0.255845581237D+00
0.125938871509D-04 0.000000000000D+00 0.000000000000D+00 0.512841232487D-03 0.000000000000D+00  6 2 3 -11 11 2 3 4 0.44505545D+00 0.19250209D-03 0.94208616D+03 0.19673352D+03 0.26655835D+04 0.14404027D+01  1  2 12  6  6  2       21 0.243773415720D+00
0.125938871509D-04 0.000000000000D+00 0.000000000000D+00 0.512841232487D-03 0.000000000000D+00  6 2 5 -11 11 2 5 4 0.44505545D+00 0.19250209D-03 0.94208616D+03 0.19673352D+03 0.26655835D+04 0.14404027D+01  1  2 12  6  6  2       21 0.147749872130D+00
0.125938871509D-04 0.000000000000D+00 0.000000000000D+00 0.512841232487D-03 0.000000000000D+00  6 2 1 -11 11 2 1 4 0.44505545D+00 0.19250209D-03 0.94208616D+03 0.19673352D+03 0.26655835D+04 0.14404027D+01  1  2 12  6  6  2       21 0.255845581237D+00
0.125938871509D-04 0.000000000000D+00 0.000000000000D+00 0.512841232487D-03 0.000000000000D+00  6 2 3 -11 11 2 3 4 0.44505545D+00 0.19250209D-03 0.94208616D+03 0.19673352D+03 0.26655835D+04 0.14404027D+01  1  2 12  6  6  2       21 0.243773415720D+00
0.125938871509D-04 0.000000000000D+00 0.000000000000D+00 0.512841232487D-03 0.000000000000D+00  6 2 5 -11 11 2 5 4 0.44505545D+00 0.19250209D-03 0.94208616D+03 0.19673352D+03 0.26655835D+04 0.14404027D+01  1  2 12  6  6  2       21 0.147749872130D+00
-.421767304289D-04 0.000000000000D+00 -.279484024056D-04 0.522099452074D-03 0.000000000000D+00  6 2 1 -11 11 2 1 4 0.44505545D+00 0.19856337D-03 0.70707851D+03 0.16689165D+03 0.26001683D+04 0.14533462D+01  1  2  5  6  6  2       21 -.158704421639D+01
-.421767304289D-04 0.000000000000D+00 -.279484024056D-04 0.522099452074D-03 0.000000000000D+00  6 2 3 -11 11 2 3 4 0.44505545D+00 0.19856337D-03 0.70707851D+03 0.16689165D+03 0.26001683D+04 0.14533462D+01  1  2  5  6  6  2       21 -.151086586637D+01
-.421767304289D-04 0.000000000000D+00 -.279484024056D-04 0.522099452074D-03 0.000000000000D+00  6 2 5 -11 11 2 5 4 0.44505545D+00 0.19856337D-03 0.70707851D+03 0.16689165D+03 0.26001683D+04 0.14533462D+01  1  2  5  6  6  2       21 -.912107148139D+00
0.125938871509D-04 0.000000000000D+00 0.000000000000D+00 0.512841232487D-03 0.000000000000D+00  6 2 -2 -11 11 2 -2 4 0.44505545D+00 0.19250209D-03 0.94208616D+03 0.19673352D+03 0.26655835D+04 0.14404027D+01  1  2 12  7  6  2       21 0.254659150948D+00
0.125938871509D-04 0.000000000000D+00 0.000000000000D+00 0.512841232487D-03 0.000000000000D+00  6 2 -2 -11 11 2 -2 4 0.44505545D+00 0.19250209D-03 0.94208616D+03 0.19673352D+03 0.26655835D+04 0.14404027D+01  1  2 12  7  6  2       21 0.254659150948D+00
-.421767304289D-04 0.000000000000D+00 -.279484024056D-04 0.522099452074D-03 0.000000000000D+00  6 2 -2 -11 11 2 -2 4 0.44505545D+00 0.19856337D-03 0.70707851D+03 0.16689165D+03 0.26001683D+04 0.14533462D+01  1  2  5  7  6  2       21 -.157939672646D+01
0.125938895930D-04 0.000000000000D+00 0.000000000000D+00 0.512841232487D-03 0.000000000000D+00  6 2 2 -11 11 2 2 4 0.44505545D+00 0.19250209D-03 0.94208616D+03 0.19673352D+03 0.26655835D+04 0.14404027D+01  1  2 12  8  6  2       21 0.258422876619D+00
0.125938895930D-04 0.000000000000D+00 0.000000000000D+00 0.512841232487D-03 0.000000000000D+00  6 2 2 -11 11 2 2 4 0.44505545D+00 0.19250209D-03 0.94208616D+03 0.19673352D+03 0.26655835D+04 0.14404027D+01  1  2 12  8  6  2       21 0.258422876619D+00
-.421767386074D-04 0.000000000000D+00 -.279484078251D-04 0.522099394720D-03 0.000000000000D+00  6 2 2 -11 11 2 2 4 0.44505545D+00 0.19856337D-03 0.70707851D+03 0.16689182D+03 0.26001686D+04 0.14533461D+01  1  2  5  8  6  2       21 -.160333670912D+01
0.125938871509D-04 0.000000000000D+00 0.000000000000D+00 0.512841232487D-03 0.000000000000D+00  6 2 -4 -11 11 2 -4 4 0.44505545D+00 0.19250209D-03 0.94208616D+03 0.19673352D+03 0.26655835D+04 0.14404027D+01  1  2 12  9  6  2       21 0.208061708874D+00
0.125938871509D-04 0.000000000000D+00 0.000000000000D+00 0.512841232487D-03 0.000000000000D+00  6 2 -4 -11 11 2 -4 4 0.44505545D+00 0.19250209D-03 0.94208616D+03 0.19673352D+03 0.26655835D+04 0.14404027D+01  1  2 12  9  6  2       21 0.208061708874D+00
-.421767304289D-04 0.000000000000D+00 -.279484024056D-04 0.522099452074D-03 0.000000000000D+00  6 2 -4 -11 11 2 -4 4 0.44505545D+00 0.19856337D-03 0.70707851D+03 0.16689165D+03 0.26001683D+04 0.14533462D+01  1  2  5  9  6  2       21 -.128764280637D+01
0.125938871509D-04 0.000000000000D+00 0.000000000000D+00 0.512841232487D-03 0.000000000000D+00  6 2 4 -11 11 2 4 4 0.44505545D+00 0.19250209D-03 0.94208616D+03 0.19673352D+03 0.26655835D+04 0.14404027D+01  1  2 12 10  6  2       21 0.208095731005D+00
0.125938871509D-04 0.000000000000D+00 0.000000000000D+00 0.512841232487D-03 0.000000000000D+00  6 2 4 -11 11 2 4 4 0.44505545D+00 0.19250209D-03 0.94208616D+03 0.19673352D+03 0.26655835D+04 0.14404027D+01  1  2 12 10  6  2       21 0.208095731005D+00
-.421767304289D-04 0.000000000000D+00 -.279484024056D-04 0.522099452074D-03 0.000000000000D+00  6 2 4 -11 11 2 4 4 0.44505545D+00 0.19856337D-03 0.70707851D+03 0.16689165D+03 0.26001683D+04 0.14533462D+01  1  2  5 10  6  2       21 -.128785588962D+01
  </mgrwgt>
  </event>
  <event npLO=' -1 ' npNLO=' 1 '>
  6     66 0.13243562E+02 0.32249925E+02 0.75467711E-02 0.14062254E+00
        2 -1    0    0  502    0 0.00000000E+00 0.00000000E+00 0.13975254E+04 0.13975254E+04 0.00000000E+00 0.0000E+00 0.9000E+01
       21 -1    0    0  501  502 0.00000000E+00 0.00000000E+00 -.47254475E+01 0.47254475E+01 0.00000000E+00 0.0000E+00 0.9000E+01
       23  2    1    2    0    0 -.29786500E+02 -.12362121E+02 0.12843921E+04 0.12891477E+04 0.10582388E+03 0.0000E+00 0.0000E+00
      -11  1    3    3    0    0 0.41462296E+01 -.39517533E+02 0.20130627E+03 0.20519025E+03 0.00000000E+00 0.0000E+00 0.9000E+01
       11  1    3    3    0    0 -.33932730E+02 0.27155412E+02 0.10830859E+04 0.10839575E+04 0.00000000E+00 0.0000E+00 0.9000E+01
        2  1    1    2  501    0 0.29786500E+02 0.12362121E+02 0.10840788E+03 0.11310317E+03 0.00000000E+00 0.0000E+00 0.9000E+01
#aMCatNLO 1  0  0  2  5 0.51641118D+01 0.00000000D+00  -5  6  0 0.00000000D+00 0.00000000D+00 0.00000000D+00 0.00000000D+00 0.00000000D+00
  <mgrwgt>
 0.8896033378D+03   49    2    0
 0.812645869857909D+02 0.000000000000000D+00 0.000000000000000D+00 0.812645869857909D+02
 0.812645869857909D+02 0.000000000000000D+00 0.000000000000000D+00 -.812645869857909D+02
 0.452155538219036D+02 0.414622959324834D+01 -.395175326690492D+02 -.215782228029133D+02
 0.705003636412135D+02 -.339327298031287D+02 0.271554116622422D+02 0.555108524444127D+02
 0.468132565084647D+02 0.297865002098804D+02 0.123621210068070D+02 -.339326296414994D+02
 0.000000000000000D+00 -.000000000000000D+00 0.000000000000000D+00 -.000000000000000D+00
 0.825930297956196D+02 0.000000000000000D+00 0.000000000000000D+00 0.825930297956196D+02
 0.850934498794685D+02 0.000000000000000D+00 0.000000000000000D+00 -.850934498794685D+02
 0.457488687477244D+02 0.529494738495155D+01 -.399912843574064D+02 -.215782228029133D+02
 0.693865906096088D+02 -.321662080286174D+02 0.264268666016197D+02 0.555108524444127D+02
 0.474543805115920D+02 0.309769316859212D+02 0.118711658516581D+02 -.339326296414994D+02
 0.509663980616288D+01 -.410567104225530D+01 0.169325190412865D+01 -.250042008384889D+01
0.755864646625D-03 0.000000000000D+00 0.000000000000D+00 0.221943586334D-04 0.000000000000D+00  6 2 21 -11 11 2 21 2 0.21500392D+00 0.72699192D-03 0.33319007D+04 0.10400576D+04 0.51035886D+04 0.13268573D+01  1  2  2  2  6  2       21 0.132203583970D+03
-.302530989666D-04 0.366970274041D-04 0.166517291395D-05 0.221943586334D-04 0.000000000000D+00  6 2 21 -11 11 2 21 4 0.21500392D+00 0.72699192D-03 0.33319007D+04 0.10400576D+04 0.51035886D+04 0.13268573D+01  1  2  3  2  6  2       21 -.222533236339D+02
0.557351405718D-04 0.000000000000D+00 0.000000000000D+00 0.221943586334D-04 0.000000000000D+00  6 2 21 -11 11 2 21 4 0.21500392D+00 0.72699192D-03 0.33319007D+04 0.10400576D+04 0.51035886D+04 0.13268573D+01  1  2 15  2  6  2       21 0.171623500767D+02
0.918211827684D-03 0.000000000000D+00 0.000000000000D+00 0.222771149590D-04 0.000000000000D+00  6 2 21 -11 11 2 21 4 0.21500392D+00 0.77368904D-03 0.35751418D+04 0.99823545D+03 0.50434546D+04 0.13293288D+01  1  2 12  2  6  2       21 0.260142294175D+03
0.918211827684D-03 0.000000000000D+00 0.000000000000D+00 0.222771149590D-04 0.000000000000D+00  6 2 21 -11 11 2 21 4 0.21500392D+00 0.77368904D-03 0.35751418D+04 0.99823545D+03 0.50434546D+04 0.13293288D+01  1  2 12  2  6  2       21 0.260142294175D+03
-.189169137486D-02 0.000000000000D+00 0.000000000000D+00 0.221943586334D-04 0.000000000000D+00  6 2 21 -11 11 2 21 4 0.21500392D+00 0.72699192D-03 0.33319007D+04 0.10400576D+04 0.51035886D+04 0.13268573D+01  1  2  4  2  6  2       21 -.582502695415D+03
-.178831126397D-01 0.000000000000D+00 -.295194753595D-02 0.221943586334D-04 0.000000000000D+00  6 2 21 -11 11 2 21 4 0.21500392D+00 0.77451048D-03 0.33319007D+04 0.10400576D+04 0.51035886D+04 0.13268573D+01  1  2  5  2  6  2       21 -.537843833231D+04
0.179367064077D-01 0.000000000000D+00 0.292841319871D-02 0.221943586334D-04 0.000000000000D+00  6 2 21 -11 11 2 21 4 0.21500392D+00 0.72699192D-03 0.33319007D+04 0.10400576D+04 0.51035886D+04 0.13268573D+01  1  2  6  2  6  2       21 0.590769639346D+04
0.111870434604D-02 0.000000000000D+00 0.000000000000D+00 0.221943586334D-04 0.135300730704D-04  6 2 21 -11 11 2 21 4 0.21851861D+00 0.76124488D-03 0.35751418D+04 0.99823545D+03 0.50434546D+04 0.13293288D+01  1  2 11  2  6  2       21 0.315866475193D+03
0.198843948635D-04 0.000000000000D+00 0.000000000000D+00 0.222771149590D-04 0.000000000000D+00  6 2 -1 -11 11 2 -1 4 0.21500392D+00 0.77368904D-03 0.35751418D+04 0.99823545D+03 0.50434546D+04 0.13293288D+01  1  2 12  5  6  2       21 0.285485368744D+00
0.198843948635D-04 0.000000000000D+00 0.000000000000D+00 0.222771149590D-04 0.000000000000D+00  6 2 -3 -11 11 2 -3 4 0.21500392D+00 0.77368904D-03 0.35751418D+04 0.99823545D+03 0.50434546D+04 0.13293288D+01  1  2 12  5  6  2       21 0.269451974967D+00
0.198843948635D-04 0.000000000000D+00 0.000000000000D+00 0.222771149590D-04 0.000000000000D+00  6 2 -5 -11 11 2 -5 4 0.21500392D+00 0.77368904D-03 0.35751418D+04 0.99823545D+03 0.50434546D+04 0.13293288D+01  1  2 12  5  6  2       21 0.157646053525D+00
0.198843948635D-04 0.000000000000D+00 0.000000000000D+00 0.222771149590D-04 0.000000000000D+00  6 2 -1 -11 11 2 -1 4 0.21500392D+00 0.77368904D-03 0.35751418D+04 0.99823545D+03 0.50434546D+04 0.13293288D+01  1  2 12  5  6  2       21 0.285485368744D+00
0.198843948635D-04 0.000000000000D+00 0.000000000000D+00 0.222771149590D-04 0.000000000000D+00  6 2 -3 -11 11 2 -3 4 0.21500392D+00 0.77368904D-03 0.35751418D+04 0.99823545D+03 0.50434546D+04 0.13293288D+01  1  2 12  5  6  2       21 0.269451974967D+00
0.198843948635D-04 0.000000000000D+00 0.000000000000D+00 0.222771149590D-04 0.000000000000D+00  6 2 -5 -11 11 2 -5 4 0.21500392D+00 0.77368904D-03 0.35751418D+04 0.99823545D+03 0.50434546D+04 0.13293288D+01  1  2 12  5  6  2       21 0.157646053525D+00
-.230984914119D-03 0.000000000000D+00 -.454865454868D-04 0.221943586334D-04 0.000000000000D+00  6 2 -1 -11 11 2 -1 4 0.21500392D+00 0.77451048D-03 0.33319007D+04 0.10400576D+04 0.51035886D+04 0.13268573D+01  1  2  5  5  6  2       21 -.356508795365D+01
-.230984914119D-03 0.000000000000D+00 -.454865454868D-04 0.221943586334D-04 0.000000000000D+00  6 2 -3 -11 11 2 -3 4 0.21500392D+00 0.77451048D-03 0.33319007D+04 0.10400576D+04 0.51035886D+04 0.13268573D+01  1  2  5  5  6  2       21 -.336501814606D+01
-.230984914119D-03 0.000000000000D+00 -.454865454868D-04 0.221943586334D-04 0.000000000000D+00  6 2 -5 -11 11 2 -5 4 0.21500392D+00 0.77451048D-03 0.33319007D+04 0.10400576D+04 0.51035886D+04 0.13268573D+01  1  2  5  5  6  2       21 -.197038925482D+01
0.348753883475D-04 0.000000000000D+00 0.000000000000D+00 0.221943586334D-04 0.206160404508D-06  6 2 -1 -11 11 2 -1 4 0.21851861D+00 0.76124488D-03 0.35751418D+04 0.99823545D+03 0.50434546D+04 0.13293288D+01  1  2 11  5  6  2       21 0.498284141299D+00
0.348753883475D-04 0.000000000000D+00 0.000000000000D+00 0.221943586334D-04 0.206160404508D-06  6 2 -3 -11 11 2 -3 4 0.21851861D+00 0.76124488D-03 0.35751418D+04 0.99823545D+03 0.50434546D+04 0.13293288D+01  1  2 11  5  6  2       21 0.470440602397D+00
0.348753883475D-04 0.000000000000D+00 0.000000000000D+00 0.221943586334D-04 0.206160404508D-06  6 2 -5 -11 11 2 -5 4 0.21851861D+00 0.76124488D-03 0.35751418D+04 0.99823545D+03 0.50434546D+04 0.13293288D+01  1  2 11  5  6  2       21 0.275572498148D+00
0.198843948635D-04 0.000000000000D+00 0.000000000000D+00 0.222771149590D-04 0.000000000000D+00  6 2 1 -11 11 2 1 4 0.21500392D+00 0.77368904D-03 0.35751418D+04 0.99823545D+03 0.50434546D+04 0.13293288D+01  1  2 12  6  6  2       21 0.293021652212D+00
0.198843948635D-04 0.000000000000D+00 0.000000000000D+00 0.222771149590D-04 0.000000000000D+00  6 2 3 -11 11 2 3 4 0.21500392D+00 0.77368904D-03 0.35751418D+04 0.99823545D+03 0.50434546D+04 0.13293288D+01  1  2 12  6  6  2       21 0.268979115616D+00
0.198843948635D-04 0.000000000000D+00 0.000000000000D+00 0.222771149590D-04 0.000000000000D+00  6 2 5 -11 11 2 5 4 0.21500392D+00 0.77368904D-03 0.35751418D+04 0.99823545D+03 0.50434546D+04 0.13293288D+01  1  2 12  6  6  2       21 0.157657217482D+00
0.198843948635D-04 0.000000000000D+00 0.000000000000D+00 0.222771149590D-04 0.000000000000D+00  6 2 1 -11 11 2 1 4 0.21500392D+00 0.77368904D-03 0.35751418D+04 0.99823545D+03 0.50434546D+04 0.13293288D+01  1  2 12  6  6  2       21 0.293021652212D+00
0.198843948635D-04 0.000000000000D+00 0.000000000000D+00 0.222771149590D-04 0.000000000000D+00  6 2 3 -11 11 2 3 4 0.21500392D+00 0.77368904D-03 0.35751418D+04 0.99823545D+03 0.50434546D+04 0.13293288D+01  1  2 12  6  6  2       21 0.268979115616D+00
0.198843948635D-04 0.000000000000D+00 0.000000000000D+00 0.222771149590D-04 0.000000000000D+00  6 2 5 -11 11 2 5 4 0.21500392D+00 0.77368904D-03 0.35751418D+04 0.99823545D+03 0.50434546D+04 0.13293288D+01  1  2 12  6  6  2       21 0.157657217482D+00
-.230984914119D-03 0.000000000000D+00 -.454865454868D-04 0.221943586334D-04 0.000000000000D+00  6 2 1 -11 11 2 1 4 0.21500392D+00 0.77451048D-03 0.33319007D+04 0.10400576D+04 0.51035886D+04 0.13268573D+01  1  2  5  6  6  2       21 -.365921292312D+01
-.230984914119D-03 0.000000000000D+00 -.454865454868D-04 0.221943586334D-04 0.000000000000D+00  6 2 3 -11 11 2 3 4 0.21500392D+00 0.77451048D-03 0.33319007D+04 0.10400576D+04 0.51035886D+04 0.13268573D+01  1  2  5  6  6  2       21 -.335911940624D+01
-.230984914119D-03 0.000000000000D+00 -.454865454868D-04 0.221943586334D-04 0.000000000000D+00  6 2 5 -11 11 2 5 4 0.21500392D+00 0.77451048D-03 0.33319007D+04 0.10400576D+04 0.51035886D+04 0.13268573D+01  1  2  5  6  6  2       21 -.197052844138D+01
0.351698175826D-04 0.000000000000D+00 0.000000000000D+00 0.221943586334D-04 0.207900876889D-06  6 2 1 -11 11 2 1 4 0.21851861D+00 0.76124488D-03 0.35751418D+04 0.99823545D+03 0.50434546D+04 0.13293288D+01  1  2 11  6  6  2       21 0.515591999989D+00
0.351698175826D-04 0.000000000000D+00 0.000000000000D+00 0.221943586334D-04 0.207900876889D-06  6 2 3 -11 11 2 3 4 0.21851861D+00 0.76124488D-03 0.35751418D+04 0.99823545D+03 0.50434546D+04 0.13293288D+01  1  2 11  6  6  2       21 0.473582852465D+00
0.351698175826D-04 0.000000000000D+00 0.000000000000D+00 0.221943586334D-04 0.207900876889D-06  6 2 5 -11 11 2 5 4 0.21851861D+00 0.76124488D-03 0.35751418D+04 0.99823545D+03 0.50434546D+04 0.13293288D+01  1  2 11  6  6  2       21 0.277918819962D+00
0.198843948635D-04 0.000000000000D+00 0.000000000000D+00 0.222771149590D-04 0.000000000000D+00  6 2 -2 -11 11 2 -2 4 0.21500392D+00 0.77368904D-03 0.35751418D+04 0.99823545D+03 0.50434546D+04 0.13293288D+01  1  2 12  7  6  2       21 0.286858535515D+00
0.198843948635D-04 0.000000000000D+00 0.000000000000D+00 0.222771149590D-04 0.000000000000D+00  6 2 -2 -11 11 2 -2 4 0.21500392D+00 0.77368904D-03 0.35751418D+04 0.99823545D+03 0.50434546D+04 0.13293288D+01  1  2 12  7  6  2       21 0.286858535515D+00
-.230984914119D-03 0.000000000000D+00 -.454865454868D-04 0.221943586334D-04 0.000000000000D+00  6 2 -2 -11 11 2 -2 4 0.21500392D+00 0.77451048D-03 0.33319007D+04 0.10400576D+04 0.51035886D+04 0.13268573D+01  1  2  5  7  6  2       21 -.358219717867D+01
0.105818192230D-03 0.000000000000D+00 0.000000000000D+00 0.221943586334D-04 0.110128938564D-05  6 2 -2 -11 11 2 -2 4 0.21851861D+00 0.76124488D-03 0.35751418D+04 0.99823545D+03 0.50434546D+04 0.13293288D+01  1  2 11  7  6  2       21 0.151920265487D+01
0.198843948635D-04 0.000000000000D+00 0.000000000000D+00 0.222771149590D-04 0.000000000000D+00  6 2 2 -11 11 2 2 4 0.21500392D+00 0.77368904D-03 0.35751418D+04 0.99823545D+03 0.50434546D+04 0.13293288D+01  1  2 12  8  6  2       21 0.298960573536D+00
0.198843948635D-04 0.000000000000D+00 0.000000000000D+00 0.222771149590D-04 0.000000000000D+00  6 2 2 -11 11 2 2 4 0.21500392D+00 0.77368904D-03 0.35751418D+04 0.99823545D+03 0.50434546D+04 0.13293288D+01  1  2 12  8  6  2       21 0.298960573536D+00
-.230984914119D-03 0.000000000000D+00 -.454865454868D-04 0.221943566249D-04 0.000000000000D+00  6 2 2 -11 11 2 2 4 0.21500392D+00 0.77451048D-03 0.33319007D+04 0.10400587D+04 0.51035897D+04 0.13268573D+01  1  2  5  8  6  2       21 -.373336669508D+01
0.344766817894D-04 0.000000000000D+00 0.000000000000D+00 0.221943566249D-04 0.131587085526D-06  6 2 2 -11 11 2 2 4 0.21851861D+00 0.76124488D-03 0.35751418D+04 0.99823545D+03 0.50434546D+04 0.13293288D+01  1  2 11  8  6  2       21 0.515578212422D+00
0.198843948635D-04 0.000000000000D+00 0.000000000000D+00 0.222771149590D-04 0.000000000000D+00  6 2 -4 -11 11 2 -4 4 0.21500392D+00 0.77368904D-03 0.35751418D+04 0.99823545D+03 0.50434546D+04 0.13293288D+01  1  2 12  9  6  2       21 0.221520253522D+00
0.198843948635D-04 0.000000000000D+00 0.000000000000D+00 0.222771149590D-04 0.000000000000D+00  6 2 -4 -11 11 2 -4 4 0.21500392D+00 0.77368904D-03 0.35751418D+04 0.99823545D+03 0.50434546D+04 0.13293288D+01  1  2 12  9  6  2       21 0.221520253522D+00
-.230984914119D-03 0.000000000000D+00 -.454865454868D-04 0.221943586334D-04 0.000000000000D+00  6 2 -4 -11 11 2 -4 4 0.21500392D+00 0.77451048D-03 0.33319007D+04 0.10400576D+04 0.51035886D+04 0.13268573D+01  1  2  5  9  6  2       21 -.276702763739D+01
0.387018472502D-04 0.000000000000D+00 0.000000000000D+00 0.221943586334D-04 0.228779917941D-06  6 2 -4 -11 11 2 -4 4 0.21851861D+00 0.76124488D-03 0.35751418D+04 0.99823545D+03 0.50434546D+04 0.13293288D+01  1  2 11  9  6  2       21 0.429516407631D+00
0.198843948635D-04 0.000000000000D+00 0.000000000000D+00 0.222771149590D-04 0.000000000000D+00  6 2 4 -11 11 2 4 4 0.21500392D+00 0.77368904D-03 0.35751418D+04 0.99823545D+03 0.50434546D+04 0.13293288D+01  1  2 12 10  6  2       21 0.221553035130D+00
0.198843948635D-04 0.000000000000D+00 0.000000000000D+00 0.222771149590D-04 0.000000000000D+00  6 2 4 -11 11 2 4 4 0.21500392D+00 0.77368904D-03 0.35751418D+04 0.99823545D+03 0.50434546D+04 0.13293288D+01  1  2 12 10  6  2       21 0.221553035130D+00
-.230984914119D-03 0.000000000000D+00 -.454865454868D-04 0.221943586334D-04 0.000000000000D+00  6 2 4 -11 11 2 4 4 0.21500392D+00 0.77451048D-03 0.33319007D+04 0.10400576D+04 0.51035886D+04 0.13268573D+01  1  2  5 10  6  2       21 -.276743608290D+01
0.383545874086D-04 0.000000000000D+00 0.000000000000D+00 0.221943586334D-04 0.226727145691D-06  6 2 4 -11 11 2 4 4 0.21851861D+00 0.76124488D-03 0.35751418D+04 0.99823545D+03 0.50434546D+04 0.13293288D+01  1  2 11 10  6  2       21 0.425726044421D+00
  </mgrwgt>
  </event>
  <event npLO=' -1 ' npNLO=' 1 '>
  6     66 0.13243562E+02 0.10019047E+02 0.75467711E-02 0.13993259E+00
        2 -1    0    0  502    0 0.00000000E+00 0.00000000E+00 0.57840496E+03 0.57840496E+03 0.00000000E+00 0.0000E+00 0.9000E+01
       21 -1    0    0  501  502 0.00000000E+00 0.00000000E+00 -.54438845E+01 0.54438845E+01 0.00000000E+00 0.0000E+00 0.9000E+01
       23  2    1    2    0    0 0.69976362E+01 -.71703823E+01 0.56091479E+03 0.56818059E+03 0.90018878E+02 0.0000E+00 0.0000E+00
      -11  1    3    3    0    0 0.26025374E+02 0.32674117E+02 0.36326292E+03 0.36565676E+03 0.00000000E+00 0.0000E+00 0.9000E+01
       11  1    3    3    0    0 -.19027737E+02 -.39844500E+02 0.19765187E+03 0.20252383E+03 0.00000000E+00 0.0000E+00 0.9000E+01
        2  1    1    2  501    0 -.69976362E+01 0.71703823E+01 0.12046292E+02 0.15668262E+02 0.00000000E+00 0.0000E+00 0.9000E+01
#aMCatNLO 1  0  0  1  1 0.24854938D+00 0.00000000D+00  -5  6  0 0.00000000D+00 0.00000000D+00 0.00000000D+00 0.00000000D+00 0.00000000D+00
  <mgrwgt>
 0.5446374126D+03    6    2    0
 0.561139004320025D+02 0.000000000000000D+00 0.000000000000000D+00 0.561139004320025D+02
 0.561139004320025D+02 0.000000000000000D+00 0.000000000000000D+00 -.561139004320025D+02
 0.476955278701229D+02 0.260253735112193D+02 0.326741174935955D+02 0.230205420966993D+02
 0.445208279440821D+02 -.190277373091965D+02 -.398444997529973D+02 -.569782179013769D+01
 0.200114450498001D+02 -.699763620202279D+01 0.717038225940178D+01 -.173227203065616D+02
 0.000000000000000D+00 0.000000000000000D+00 0.000000000000000D+00 0.000000000000000D+00
 0.995336386150033D+02 0.000000000000000D+00 0.000000000000000D+00 0.995336386150033D+02
 0.659647965478875D+02 0.000000000000000D+00 0.000000000000000D+00 -.659647965478875D+02
 0.409633964846205D+02 0.127868384216498D+02 0.313775597570770D+02 0.230205420966993D+02
 0.535768510519574D+02 -.336756655921761D+02 -.412790908622682D+02 -.569782179013769D+01
 0.228564641971726D+02 -.133986649186786D+02 0.654347729989485D+01 -.173227203065616D+02
 0.481017234291403D+02 0.342874920892048D+02 0.335805380529636D+01 0.335688420671157D+02
0.228729606062D-03 0.000000000000D+00 0.000000000000D+00 0.223584392960D-02 0.000000000000D+00  6 2 21 -11 11 2 21 2 0.88985379D-01 0.83752069D-03 0.23014077D+04 0.10038129D+03 0.25297764D+04 0.14957812D+01  1  2  2  1  6  1        2 0.119441347780D+03
0.417052471540D-04 0.111047614931D-04 0.503892259459D-06 0.223584392960D-02 0.000000000000D+00  6 2 21 -11 11 2 21 4 0.88985379D-01 0.83752069D-03 0.23014077D+04 0.10038129D+03 0.25297764D+04 0.14957812D+01  1  2  3  1  6  1        2 0.814269776652D+01
0.197010619149D-04 0.000000000000D+00 0.000000000000D+00 0.223584392960D-02 0.000000000000D+00  6 2 21 -11 11 2 21 4 0.88985379D-01 0.83752069D-03 0.23014077D+04 0.10038129D+03 0.25297764D+04 0.14957812D+01  1  2 15  1  6  1        2 0.230174967632D+02
-.469881989738D-03 0.000000000000D+00 -.242524657340D-03 0.223584392960D-02 0.000000000000D+00  6 2 21 -11 11 2 21 4 0.17355028D+00 0.83752069D-03 0.23014077D+04 0.10038129D+03 0.25297764D+04 0.14957812D+01  1  2  5  1  6  1        2 -.262751839818D+03
0.550114585222D-03 0.000000000000D+00 0.196929640365D-03 0.223584392960D-02 0.000000000000D+00  6 2 21 -11 11 2 21 4 0.88985379D-01 0.83752069D-03 0.23014077D+04 0.10038129D+03 0.25297764D+04 0.14957812D+01  1  2  6  1  6  1        2 0.664487592804D+03
-.197818324482D-04 0.000000000000D+00 -.175564013773D-04 0.223584392960D-02 0.000000000000D+00  6 21 21 -11 11 2 -2 4 0.17355028D+00 0.83752069D-03 0.23014077D+04 0.10038129D+03 0.25297764D+04 0.14957812D+01  1  2  5  4  6  1        2 -.769988271065D+01
  </mgrwgt>
  </event>
  <event npLO=' -1 ' npNLO=' 1 '>
  7     66 0.13243562E+02 0.12131846E+02 0.75467711E-02 0.14958171E+00
        2 -1    0    0  503    0 0.00000000E+00 0.00000000E+00 0.10700037E+04 0.10700037E+04 0.00000000E+00 0.0000E+00 0.9000E+01
       21 -1    0    0  501  502 0.00000000E+00 0.00000000E+00 -.78858906E+01 0.78858906E+01 0.00000000E+00 0.0000E+00 0.9000E+01
       23  2    1    2    0    0 -.11349890E+02 0.12253854E+01 0.35143013E+03 0.36314574E+03 0.90782005E+02 0.0000E+00 0.0000E+00
      -11  1    3    3    0    0 0.30101200E+02 -.11783081E+02 0.25906076E+03 0.26106973E+03 0.00000000E+00 0.0000E+00 0.9000E+01
       11  1    3    3    0    0 -.41451090E+02 0.13008466E+02 0.92369367E+02 0.10207602E+03 0.00000000E+00 0.0000E+00 0.9000E+01
        2  1    1    2  501    0 0.16221715E+01 -.22543645E+02 0.68574699E+02 0.72203440E+02 0.00000000E+00 0.0000E+00 0.9000E+01
       21  1    1    2  503  502 0.97277180E+01 0.21318260E+02 0.64211295E+03 0.64254038E+03 0.00000000E+00 0.0000E+00 0.9000E+01
#aMCatNLO 2  0  0  1  2 0.35494710D+02 0.00000000D+00  -5  6  0 0.00000000D+00 0.00000000D+00 0.00000000D+00 0.00000000D+00 0.00000000D+00
  <mgrwgt>
 0.4748845967D+03    1    2    0
 0.560708422284300D+02 0.000000000000000D+00 0.000000000000000D+00 0.560708422284300D+02
 0.560708422284300D+02 0.000000000000000D+00 0.000000000000000D+00 -.560708422284300D+02
 0.436175163729417D+02 0.337892164314971D+02 -.370080652613696D+01 0.273327755368054D+02
 0.491986827853324D+02 -.372264252341451D+02 0.222668037400402D+02 -.232140712349408D+02
 0.193254852985859D+02 0.343720880264801D+01 -.185659972139032D+02 -.411870430186458D+01
 0.000000000000000D+00 0.000000000000000D+00 0.000000000000000D+00 0.000000000000000D+00
 0.143313338990863D+03 0.000000000000000D+00 0.000000000000000D+00 0.143313338990863D+03
 0.588775053412674D+02 0.000000000000000D+00 0.000000000000000D+00 -.588775053412674D+02
 0.423320667084744D+02 0.301012003534175D+02 -.117830806900726D+02 0.273327755368054D+02
 0.492575491403419D+02 -.414510898958115D+02 0.130084661071798D+02 -.232140712349408D+02
 0.229741396799933D+02 0.162217152818019D+01 -.225436449679906D+02 -.411870430186458D+01
 0.876270888033203D+02 0.972771801421391D+01 0.213182595508834D+02 0.844358336495951D+02
0.196745549236D-02 0.000000000000D+00 0.000000000000D+00 0.912095676620D-03 0.202903468195D-04  6 2 21 -11 11 2 21 4 0.16461595D+00 0.12132139D-02 0.37090770D+04 0.51700746D+03 0.33828191D+04 0.13710212D+01  1  2  1  1  6  1        2 0.474884596683D+03
  </mgrwgt>
  </event>
  <event npLO=' -1 ' npNLO=' 1 '>
  6     66 0.13243562E+02 0.23381424E+02 0.75467711E-02 0.15342607E+00
        2 -1    0    0  502    0 0.00000000E+00 0.00000000E+00 0.13960364E+04 0.13960364E+04 0.00000000E+00 0.0000E+00 0.9000E+01
       21 -1    0    0  501  502 0.00000000E+00 0.00000000E+00 -.71980431E+01 0.71980431E+01 0.00000000E+00 0.0000E+00 0.9000E+01
       23  2    1    2    0    0 -.35128537E+01 -.23116030E+02 0.13701387E+04 0.13732951E+04 0.90069419E+02 0.0000E+00 0.0000E+00
      -11  1    3    3    0    0 0.15723236E+02 -.51843093E+02 0.62085003E+03 0.62320918E+03 0.00000000E+00 0.0000E+00 0.9000E+01
       11  1    3    3    0    0 -.19236089E+02 0.28727063E+02 0.74928872E+03 0.75008590E+03 0.00000000E+00 0.0000E+00 0.9000E+01
        2  1    1    2  501    0 0.35128537E+01 0.23116030E+02 0.18699652E+02 0.29939405E+02 0.00000000E+00 0.0000E+00 0.9000E+01
#aMCatNLO 1  0  0  2  1 0.20561057D+02 0.00000000D+00  -5  6  0 0.00000000D+00 0.00000000D+00 0.00000000D+00 0.00000000D+00 0.00000000D+00
  <mgrwgt>
 0.4909508156D+03   38    2    0
 0.100243356379707D+03 0.000000000000000D+00 0.000000000000000D+00 0.100243356379707D+03
 0.100243356379707D+03 0.000000000000000D+00 0.000000000000000D+00 -.100243356379707D+03
 0.610926061168846D+02 0.157232357433817D+02 -.518430925205749D+02 0.282379202104892D+02
 0.593827649123016D+02 -.192360894065532D+02 0.287270626189967D+02 0.482808606619332D+02
 0.800113417302279D+02 0.351285366317151D+01 0.231160299015782D+02 -.765187808724224D+02
 0.000000000000000D+00 0.000000000000000D+00 0.000000000000000D+00 -.000000000000000D+00
 0.103172052216563D+03 0.000000000000000D+00 0.000000000000000D+00 0.103172052216563D+03
 0.140654542410673D+03 0.000000000000000D+00 0.000000000000000D+00 -.140654542410673D+03
 0.634166236079382D+02 0.109815958007096D+02 -.557107939782480D+02 0.282379202104892D+02
 0.593499236948513D+02 -.237577434240488D+02 0.250388011638882D+02 0.482808606619332D+02
 0.786909543278896D+02 -.253094845210996D+01 0.181861696562243D+02 -.765187808724224D+02
 0.423690929965567D+02 0.153070960754492D+02 0.124858231581355D+02 -.374824901941107D+02
0.520026384393D-03 0.000000000000D+00 0.000000000000D+00 0.310524996574D-02 0.000000000000D+00  6 2 21 -11 11 2 21 2 0.21477484D+00 0.11073912D-02 0.31432326D+04 0.54669098D+03 0.33893471D+04 0.13673253D+01  1  2  2  2  6  2       21 0.513202995120D+02
0.394046266039D-04 0.252471425461D-04 0.114562025582D-05 0.310524996574D-02 0.000000000000D+00  6 2 21 -11 11 2 21 4 0.21477484D+00 0.11073912D-02 0.31432326D+04 0.54669098D+03 0.33893471D+04 0.13673253D+01  1  2  3  2  6  2       21 -.861522102150D+00
0.479176562830D-04 0.000000000000D+00 0.000000000000D+00 0.310524996574D-02 0.000000000000D+00  6 2 21 -11 11 2 21 4 0.21477484D+00 0.11073912D-02 0.31432326D+04 0.54669098D+03 0.33893471D+04 0.13673253D+01  1  2 15  2  6  2       21 0.884103435522D+01
0.168010420729D-02 0.000000000000D+00 0.000000000000D+00 0.300825806318D-02 0.000000000000D+00  6 2 21 -11 11 2 21 4 0.21477484D+00 0.15992108D-02 0.41870001D+04 0.76391088D+03 0.37120777D+04 0.13458018D+01  1  2 12  2  6  2       21 0.170394653958D+03
0.168010420729D-02 0.000000000000D+00 0.000000000000D+00 0.300825806318D-02 0.000000000000D+00  6 2 21 -11 11 2 21 4 0.21477484D+00 0.15992108D-02 0.41870001D+04 0.76391088D+03 0.37120777D+04 0.13458018D+01  1  2 12  2  6  2       21 0.170394653958D+03
-.361454207712D-03 0.000000000000D+00 0.000000000000D+00 0.310524996574D-02 0.000000000000D+00  6 2 21 -11 11 2 21 4 0.21477484D+00 0.11073912D-02 0.31432326D+04 0.54669098D+03 0.33893471D+04 0.13673253D+01  1  2  4  2  6  2       21 -.666900119103D+02
-.338054434367D-02 0.000000000000D+00 -.518400721565D-03 0.310524996574D-02 0.000000000000D+00  6 2 21 -11 11 2 21 4 0.21477484D+00 0.16012999D-02 0.31432326D+04 0.54669098D+03 0.33893471D+04 0.13673253D+01  1  2  5  2  6  2       21 -.367342188095D+03
0.280028799712D-02 0.000000000000D+00 0.400599447631D-03 0.310524996574D-02 0.000000000000D+00  6 2 21 -11 11 2 21 4 0.21477484D+00 0.11073912D-02 0.31432326D+04 0.54669098D+03 0.33893471D+04 0.13673253D+01  1  2  6  2  6  2       21 0.522238320818D+03
0.202897347206D-03 0.000000000000D+00 0.000000000000D+00 0.320229897030D-02 0.000000000000D+00  6 2 -1 -11 11 2 -1 4 0.21477484D+00 0.15992108D-02 0.41870001D+04 0.39941128D+03 0.31497516D+04 0.13885276D+01  1  2 12  5  6  2       21 0.126201149785D+01
0.202897347206D-03 0.000000000000D+00 0.000000000000D+00 0.320229897030D-02 0.000000000000D+00  6 2 -3 -11 11 2 -3 4 0.21477484D+00 0.15992108D-02 0.41870001D+04 0.39941128D+03 0.31497516D+04 0.13885276D+01  1  2 12  5  6  2       21 0.117127892407D+01
0.202897347206D-03 0.000000000000D+00 0.000000000000D+00 0.320229897030D-02 0.000000000000D+00  6 2 -5 -11 11 2 -5 4 0.21477484D+00 0.15992108D-02 0.41870001D+04 0.39941128D+03 0.31497516D+04 0.13885276D+01  1  2 12  5  6  2       21 0.619269772027D+00
0.202897347206D-03 0.000000000000D+00 0.000000000000D+00 0.320229897030D-02 0.000000000000D+00  6 2 -1 -11 11 2 -1 4 0.21477484D+00 0.15992108D-02 0.41870001D+04 0.39941128D+03 0.31497516D+04 0.13885276D+01  1  2 12  5  6  2       21 0.126201149785D+01
0.202897347206D-03 0.000000000000D+00 0.000000000000D+00 0.320229897030D-02 0.000000000000D+00  6 2 -3 -11 11 2 -3 4 0.21477484D+00 0.15992108D-02 0.41870001D+04 0.39941128D+03 0.31497516D+04 0.13885276D+01  1  2 12  5  6  2       21 0.117127892407D+01
0.202897347206D-03 0.000000000000D+00 0.000000000000D+00 0.320229897030D-02 0.000000000000D+00  6 2 -5 -11 11 2 -5 4 0.21477484D+00 0.15992108D-02 0.41870001D+04 0.39941128D+03 0.31497516D+04 0.13885276D+01  1  2 12  5  6  2       21 0.619269772027D+00
-.365752975111D-03 0.000000000000D+00 -.628757730684D-04 0.310524996574D-02 0.000000000000D+00  6 2 -1 -11 11 2 -1 4 0.21477484D+00 0.16012999D-02 0.31432326D+04 0.54669098D+03 0.33893471D+04 0.13673253D+01  1  2  5  5  6  2       21 -.216924702703D+01
-.365752975111D-03 0.000000000000D+00 -.628757730684D-04 0.310524996574D-02 0.000000000000D+00  6 2 -3 -11 11 2 -3 4 0.21477484D+00 0.16012999D-02 0.31432326D+04 0.54669098D+03 0.33893471D+04 0.13673253D+01  1  2  5  5  6  2       21 -.201415358301D+01
-.365752975111D-03 0.000000000000D+00 -.628757730684D-04 0.310524996574D-02 0.000000000000D+00  6 2 -5 -11 11 2 -5 4 0.21477484D+00 0.16012999D-02 0.31432326D+04 0.54669098D+03 0.33893471D+04 0.13673253D+01  1  2  5  5  6  2       21 -.107186884995D+01
0.202897347206D-03 0.000000000000D+00 0.000000000000D+00 0.320229897030D-02 0.000000000000D+00  6 2 1 -11 11 2 1 4 0.21477484D+00 0.15992108D-02 0.41870001D+04 0.39941128D+03 0.31497516D+04 0.13885276D+01  1  2 12  6  6  2       21 0.132177752957D+01
0.202897347206D-03 0.000000000000D+00 0.000000000000D+00 0.320229897030D-02 0.000000000000D+00  6 2 3 -11 11 2 3 4 0.21477484D+00 0.15992108D-02 0.41870001D+04 0.39941128D+03 0.31497516D+04 0.13885276D+01  1  2 12  6  6  2       21 0.116889564964D+01
0.202897347206D-03 0.000000000000D+00 0.000000000000D+00 0.320229897030D-02 0.000000000000D+00  6 2 5 -11 11 2 5 4 0.21477484D+00 0.15992108D-02 0.41870001D+04 0.39941128D+03 0.31497516D+04 0.13885276D+01  1  2 12  6  6  2       21 0.619278921425D+00
0.202897347206D-03 0.000000000000D+00 0.000000000000D+00 0.320229897030D-02 0.000000000000D+00  6 2 1 -11 11 2 1 4 0.21477484D+00 0.15992108D-02 0.41870001D+04 0.39941128D+03 0.31497516D+04 0.13885276D+01  1  2 12  6  6  2       21 0.132177752957D+01
0.202897347206D-03 0.000000000000D+00 0.000000000000D+00 0.320229897030D-02 0.000000000000D+00  6 2 3 -11 11 2 3 4 0.21477484D+00 0.15992108D-02 0.41870001D+04 0.39941128D+03 0.31497516D+04 0.13885276D+01  1  2 12  6  6  2       21 0.116889564964D+01
0.202897347206D-03 0.000000000000D+00 0.000000000000D+00 0.320229897030D-02 0.000000000000D+00  6 2 5 -11 11 2 5 4 0.21477484D+00 0.15992108D-02 0.41870001D+04 0.39941128D+03 0.31497516D+04 0.13885276D+01  1  2 12  6  6  2       21 0.619278921425D+00
-.365752975111D-03 0.000000000000D+00 -.628757730684D-04 0.310524996574D-02 0.000000000000D+00  6 2 1 -11 11 2 1 4 0.21477484D+00 0.16012999D-02 0.31432326D+04 0.54669098D+03 0.33893471D+04 0.13673253D+01  1  2  5  6  6  2       21 -.227172235337D+01
-.365752975111D-03 0.000000000000D+00 -.628757730684D-04 0.310524996574D-02 0.000000000000D+00  6 2 3 -11 11 2 3 4 0.21477484D+00 0.16012999D-02 0.31432326D+04 0.54669098D+03 0.33893471D+04 0.13673253D+01  1  2  5  6  6  2       21 -.201009164951D+01
-.365752975111D-03 0.000000000000D+00 -.628757730684D-04 0.310524996574D-02 0.000000000000D+00  6 2 5 -11 11 2 5 4 0.21477484D+00 0.16012999D-02 0.31432326D+04 0.54669098D+03 0.33893471D+04 0.13673253D+01  1  2  5  6  6  2       21 -.107188368028D+01
0.202897347206D-03 0.000000000000D+00 0.000000000000D+00 0.320229897030D-02 0.000000000000D+00  6 2 -2 -11 11 2 -2 4 0.21477484D+00 0.15992108D-02 0.41870001D+04 0.39941128D+03 0.31497516D+04 0.13885276D+01  1  2 12  7  6  2       21 0.126448288430D+01
0.202897347206D-03 0.000000000000D+00 0.000000000000D+00 0.320229897030D-02 0.000000000000D+00  6 2 -2 -11 11 2 -2 4 0.21477484D+00 0.15992108D-02 0.41870001D+04 0.39941128D+03 0.31497516D+04 0.13885276D+01  1  2 12  7  6  2       21 0.126448288430D+01
-.365752975111D-03 0.000000000000D+00 -.628757730684D-04 0.310524996574D-02 0.000000000000D+00  6 2 -2 -11 11 2 -2 4 0.21477484D+00 0.16012999D-02 0.31432326D+04 0.54669098D+03 0.33893471D+04 0.13673253D+01  1  2  5  7  6  2       21 -.217336749169D+01
0.202897366275D-03 0.000000000000D+00 0.000000000000D+00 0.300825806318D-02 0.000000000000D+00  6 2 2 -11 11 2 2 4 0.21477484D+00 0.15992108D-02 0.41870001D+04 0.76391088D+03 0.37120777D+04 0.13458018D+01  1  2 12  8  6  2       21 0.121068252408D+01
0.202897366275D-03 0.000000000000D+00 0.000000000000D+00 0.300825806318D-02 0.000000000000D+00  6 2 2 -11 11 2 2 4 0.21477484D+00 0.15992108D-02 0.41870001D+04 0.76391088D+03 0.37120777D+04 0.13458018D+01  1  2 12  8  6  2       21 0.121068252408D+01
-.365753009485D-03 0.000000000000D+00 -.628757789777D-04 0.310524966630D-02 0.000000000000D+00  6 2 2 -11 11 2 2 4 0.21477484D+00 0.16012999D-02 0.31432326D+04 0.54669153D+03 0.33893478D+04 0.13673252D+01  1  2  5  8  6  2       21 -.234401699080D+01
0.202897347206D-03 0.000000000000D+00 0.000000000000D+00 0.320229897030D-02 0.000000000000D+00  6 2 -4 -11 11 2 -4 4 0.21477484D+00 0.15992108D-02 0.41870001D+04 0.39941128D+03 0.31497516D+04 0.13885276D+01  1  2 12  9  6  2       21 0.914037696407D+00
0.202897347206D-03 0.000000000000D+00 0.000000000000D+00 0.320229897030D-02 0.000000000000D+00  6 2 -4 -11 11 2 -4 4 0.21477484D+00 0.15992108D-02 0.41870001D+04 0.39941128D+03 0.31497516D+04 0.13885276D+01  1  2 12  9  6  2       21 0.914037696407D+00
-.365752975111D-03 0.000000000000D+00 -.628757730684D-04 0.310524996574D-02 0.000000000000D+00  6 2 -4 -11 11 2 -4 4 0.21477484D+00 0.16012999D-02 0.31432326D+04 0.54669098D+03 0.33893471D+04 0.13673253D+01  1  2  5  9  6  2       21 -.157479513600D+01
0.202897347206D-03 0.000000000000D+00 0.000000000000D+00 0.320229897030D-02 0.000000000000D+00  6 2 4 -11 11 2 4 4 0.21477484D+00 0.15992108D-02 0.41870001D+04 0.39941128D+03 0.31497516D+04 0.13885276D+01  1  2 12 10  6  2       21 0.914065595856D+00
0.202897347206D-03 0.000000000000D+00 0.000000000000D+00 0.320229897030D-02 0.000000000000D+00  6 2 4 -11 11 2 4 4 0.21477484D+00 0.15992108D-02 0.41870001D+04 0.39941128D+03 0.31497516D+04 0.13885276D+01  1  2 12 10  6  2       21 0.914065595856D+00
-.365752975111D-03 0.000000000000D+00 -.628757730684D-04 0.310524996574D-02 0.000000000000D+00  6 2 4 -11 11 2 4 4 0.21477484D+00 0.16012999D-02 0.31432326D+04 0.54669098D+03 0.33893471D+04 0.13673253D+01  1  2  5 10  6  2       21 -.157484012777D+01
  </mgrwgt>
  </event>
  <event npLO=' -1 ' npNLO=' 1 '>
  6     66 0.13243562E+02 0.74455388E+02 0.75467711E-02 0.12032636E+00
        2 -1    0    0  502    0 0.00000000E+00 0.00000000E+00 0.29985801E+03 0.29985801E+03 0.00000000E+00 0.0000E+00 0.9000E+01
       21 -1    0    0  501  502 0.00000000E+00 0.00000000E+00 -.42417350E+02 0.42417350E+02 0.00000000E+00 0.0000E+00 0.9000E+01
       23  2    1    2    0    0 -.27565331E+02 0.69164712E+02 0.63979067E+02 0.13498090E+03 0.92644038E+02 0.0000E+00 0.0000E+00
      -11  1    3    3    0    0 0.79769046E+01 -.18924201E+01 -.18637146E+02 0.20360636E+02 0.00000000E+00 0.0000E+00 0.9000E+01
       11  1    3    3    0    0 -.35542235E+02 0.71057132E+02 0.82616213E+02 0.11462026E+03 0.00000000E+00 0.0000E+00 0.9000E+01
        2  1    1    2  501    0 0.27565331E+02 -.69164712E+02 0.19346159E+03 0.20729445E+03 0.00000000E+00 0.0000E+00 0.9000E+01
#aMCatNLO 1  0  0  2  5 0.26274979D+02 0.00000000D+00  -5  6  0 0.00000000D+00 0.00000000D+00 0.00000000D+00 0.00000000D+00 0.00000000D+00
  <mgrwgt>
 0.7492557938D+02   38    2    0
 0.112779351037666D+03 0.000000000000000D+00 0.000000000000000D+00 0.112779351037666D+03
 0.112779351037666D+03 0.000000000000000D+00 0.000000000000000D+00 -.112779351037666D+03
 0.521678075308021D+02 0.797690462391911D+01 -.189242006161938D+01 -.515195873576458D+02
 0.796374503996382D+02 -.355422353378399D+02 0.710571319587337D+02 -.545499872992934D+01
 0.937534441448908D+02 0.275653307139208D+02 -.691647118971144D+02 0.569745860875751D+02
 0.000000000000000D+00 -.000000000000000D+00 0.000000000000000D+00 -.000000000000000D+00
 0.115262456729709D+03 0.000000000000000D+00 0.000000000000000D+00 0.115262456729709D+03
 0.209266055958958D+03 0.000000000000000D+00 0.000000000000000D+00 -.209266055958958D+03
 0.528107281576786D+02 0.853761249377976D+01 -.786220706597002D+01 -.515195873576458D+02
 0.716698195000950D+02 -.347340779707790D+02 0.624527809112813D+02 -.545499872992934D+01
 0.102554676059441D+03 0.286138451287413D+02 -.803281145599400D+02 0.569745860875751D+02
 0.974932889714518D+02 -.241737965174203D+01 0.257375407146288D+02 -.940035992292486D+02
0.534362535061D-03 0.000000000000D+00 0.000000000000D+00 0.120517803647D-03 0.000000000000D+00  6 2 21 -11 11 2 21 2 0.46132001D-01 0.65257462D-02 0.65694348D+04 0.55436104D+04 0.93422348D+04 0.12368322D+01  1  2  2  2  6  2       21 0.184864165461D+02
-.656456016616D-04 0.259431588452D-04 0.117720285449D-05 0.120517803647D-03 0.000000000000D+00  6 2 21 -11 11 2 21 4 0.46132001D-01 0.65257462D-02 0.65694348D+04 0.55436104D+04 0.93422348D+04 0.12368322D+01  1  2  3  2  6  2       21 -.368528158985D+01
0.441147811434D-04 0.000000000000D+00 0.000000000000D+00 0.120517803647D-03 0.000000000000D+00  6 2 21 -11 11 2 21 4 0.46132001D-01 0.65257462D-02 0.65694348D+04 0.55436104D+04 0.93422348D+04 0.12368322D+01  1  2 15  2  6  2       21 0.233465364360D+01
0.398210597121D-02 0.000000000000D+00 0.000000000000D+00 0.119124269371D-03 0.000000000000D+00  6 2 21 -11 11 2 21 4 0.46132001D-01 0.12375355D-01 0.94275603D+04 0.64403948D+04 0.10284157D+05 0.12296608D+01  1  2 12  2  6  2       21 0.713056301971D+02
0.398210597121D-02 0.000000000000D+00 0.000000000000D+00 0.119124269371D-03 0.000000000000D+00  6 2 21 -11 11 2 21 4 0.46132001D-01 0.12375355D-01 0.94275603D+04 0.64403948D+04 0.10284157D+05 0.12296608D+01  1  2 12  2  6  2       21 0.713056301971D+02
-.394147343956D-02 0.000000000000D+00 0.000000000000D+00 0.120517803647D-03 0.000000000000D+00  6 2 21 -11 11 2 21 4 0.46132001D-01 0.65257462D-02 0.65694348D+04 0.55436104D+04 0.93422348D+04 0.12368322D+01  1  2  4  2  6  2       21 -.208591657678D+03
-.598577966805D-02 0.000000000000D+00 -.539466158576D-03 0.120517803647D-03 0.000000000000D+00  6 2 21 -11 11 2 21 4 0.46132001D-01 0.12316931D-01 0.65694348D+04 0.55436104D+04 0.93422348D+04 0.12368322D+01  1  2  5  2  6  2       21 -.113908053687D+03
0.423487631421D-02 0.000000000000D+00 0.268576403723D-03 0.120517803647D-03 0.000000000000D+00  6 2 21 -11 11 2 21 4 0.46132001D-01 0.65257462D-02 0.65694348D+04 0.55436104D+04 0.93422348D+04 0.12368322D+01  1  2  6  2  6  2       21 0.229124083431D+03
0.850371138925D-03 0.000000000000D+00 0.000000000000D+00 0.119124269371D-03 0.000000000000D+00  6 2 -1 -11 11 2 -1 4 0.46132001D-01 0.12375355D-01 0.94275603D+04 0.64403948D+04 0.10284157D+05 0.12296608D+01  1  2 12  5  6  2       21 0.114243552776D+01
0.850371138925D-03 0.000000000000D+00 0.000000000000D+00 0.119124269371D-03 0.000000000000D+00  6 2 -3 -11 11 2 -3 4 0.46132001D-01 0.12375355D-01 0.94275603D+04 0.64403948D+04 0.10284157D+05 0.12296608D+01  1  2 12  5  6  2       21 0.937805589838D+00
0.850371138925D-03 0.000000000000D+00 0.000000000000D+00 0.119124269371D-03 0.000000000000D+00  6 2 -5 -11 11 2 -5 4 0.46132001D-01 0.12375355D-01 0.94275603D+04 0.64403948D+04 0.10284157D+05 0.12296608D+01  1  2 12  5  6  2       21 0.431188779172D+00
0.850371138925D-03 0.000000000000D+00 0.000000000000D+00 0.119124269371D-03 0.000000000000D+00  6 2 -1 -11 11 2 -1 4 0.46132001D-01 0.12375355D-01 0.94275603D+04 0.64403948D+04 0.10284157D+05 0.12296608D+01  1  2 12  5  6  2       21 0.114243552776D+01
0.850371138925D-03 0.000000000000D+00 0.000000000000D+00 0.119124269371D-03 0.000000000000D+00  6 2 -3 -11 11 2 -3 4 0.46132001D-01 0.12375355D-01 0.94275603D+04 0.64403948D+04 0.10284157D+05 0.12296608D+01  1  2 12  5  6  2       21 0.937805589838D+00
0.850371138925D-03 0.000000000000D+00 0.000000000000D+00 0.119124269371D-03 0.000000000000D+00  6 2 -5 -11 11 2 -5 4 0.46132001D-01 0.12375355D-01 0.94275603D+04 0.64403948D+04 0.10284157D+05 0.12296608D+01  1  2 12  5  6  2       21 0.431188779172D+00
-.851267251464D-03 0.000000000000D+00 -.122069024295D-03 0.120517803647D-03 0.000000000000D+00  6 2 -1 -11 11 2 -1 4 0.46132001D-01 0.12316931D-01 0.65694348D+04 0.55436104D+04 0.93422348D+04 0.12368322D+01  1  2  5  5  6  2       21 -.123476027365D+01
-.851267251464D-03 0.000000000000D+00 -.122069024295D-03 0.120517803647D-03 0.000000000000D+00  6 2 -3 -11 11 2 -3 4 0.46132001D-01 0.12316931D-01 0.65694348D+04 0.55436104D+04 0.93422348D+04 0.12368322D+01  1  2  5  5  6  2       21 -.101365915494D+01
-.851267251464D-03 0.000000000000D+00 -.122069024295D-03 0.120517803647D-03 0.000000000000D+00  6 2 -5 -11 11 2 -5 4 0.46132001D-01 0.12316931D-01 0.65694348D+04 0.55436104D+04 0.93422348D+04 0.12368322D+01  1  2  5  5  6  2       21 -.463238701902D+00
0.850371138925D-03 0.000000000000D+00 0.000000000000D+00 0.119124269371D-03 0.000000000000D+00  6 2 1 -11 11 2 1 4 0.46132001D-01 0.12375355D-01 0.94275603D+04 0.64403948D+04 0.10284157D+05 0.12296608D+01  1  2 12  6  6  2       21 0.142360110921D+01
0.850371138925D-03 0.000000000000D+00 0.000000000000D+00 0.119124269371D-03 0.000000000000D+00  6 2 3 -11 11 2 3 4 0.46132001D-01 0.12375355D-01 0.94275603D+04 0.64403948D+04 0.10284157D+05 0.12296608D+01  1  2 12  6  6  2       21 0.938715308742D+00
0.850371138925D-03 0.000000000000D+00 0.000000000000D+00 0.119124269371D-03 0.000000000000D+00  6 2 5 -11 11 2 5 4 0.46132001D-01 0.12375355D-01 0.94275603D+04 0.64403948D+04 0.10284157D+05 0.12296608D+01  1  2 12  6  6  2       21 0.430735270935D+00
0.850371138925D-03 0.000000000000D+00 0.000000000000D+00 0.119124269371D-03 0.000000000000D+00  6 2 1 -11 11 2 1 4 0.46132001D-01 0.12375355D-01 0.94275603D+04 0.64403948D+04 0.10284157D+05 0.12296608D+01  1  2 12  6  6  2       21 0.142360110921D+01
0.850371138925D-03 0.000000000000D+00 0.000000000000D+00 0.119124269371D-03 0.000000000000D+00  6 2 3 -11 11 2 3 4 0.46132001D-01 0.12375355D-01 0.94275603D+04 0.64403948D+04 0.10284157D+05 0.12296608D+01  1  2 12  6  6  2       21 0.938715308742D+00
0.850371138925D-03 0.000000000000D+00 0.000000000000D+00 0.119124269371D-03 0.000000000000D+00  6 2 5 -11 11 2 5 4 0.46132001D-01 0.12375355D-01 0.94275603D+04 0.64403948D+04 0.10284157D+05 0.12296608D+01  1  2 12  6  6  2       21 0.430735270935D+00
-.851267251464D-03 0.000000000000D+00 -.122069024295D-03 0.120517803647D-03 0.000000000000D+00  6 2 1 -11 11 2 1 4 0.46132001D-01 0.12316931D-01 0.65694348D+04 0.55436104D+04 0.93422348D+04 0.12368322D+01  1  2  5  6  6  2       21 -.153747184036D+01
-.851267251464D-03 0.000000000000D+00 -.122069024295D-03 0.120517803647D-03 0.000000000000D+00  6 2 3 -11 11 2 3 4 0.46132001D-01 0.12316931D-01 0.65694348D+04 0.55436104D+04 0.93422348D+04 0.12368322D+01  1  2  5  6  6  2       21 -.101461871334D+01
-.851267251464D-03 0.000000000000D+00 -.122069024295D-03 0.120517803647D-03 0.000000000000D+00  6 2 5 -11 11 2 5 4 0.46132001D-01 0.12316931D-01 0.65694348D+04 0.55436104D+04 0.93422348D+04 0.12368322D+01  1  2  5  6  6  2       21 -.462752110115D+00
0.850371138925D-03 0.000000000000D+00 0.000000000000D+00 0.119124269371D-03 0.000000000000D+00  6 2 -2 -11 11 2 -2 4 0.46132001D-01 0.12375355D-01 0.94275603D+04 0.64403948D+04 0.10284157D+05 0.12296608D+01  1  2 12  7  6  2       21 0.108942110830D+01
0.850371138925D-03 0.000000000000D+00 0.000000000000D+00 0.119124269371D-03 0.000000000000D+00  6 2 -2 -11 11 2 -2 4 0.46132001D-01 0.12375355D-01 0.94275603D+04 0.64403948D+04 0.10284157D+05 0.12296608D+01  1  2 12  7  6  2       21 0.108942110830D+01
-.851267251464D-03 0.000000000000D+00 -.122069024295D-03 0.120517803647D-03 0.000000000000D+00  6 2 -2 -11 11 2 -2 4 0.46132001D-01 0.12316931D-01 0.65694348D+04 0.55436104D+04 0.93422348D+04 0.12368322D+01  1  2  5  7  6  2       21 -.117770705184D+01
0.850371138925D-03 0.000000000000D+00 0.000000000000D+00 0.119124269371D-03 0.000000000000D+00  6 2 2 -11 11 2 2 4 0.46132001D-01 0.12375355D-01 0.94275603D+04 0.64403948D+04 0.10284157D+05 0.12296608D+01  1  2 12  8  6  2       21 0.162997823465D+01
0.850371138925D-03 0.000000000000D+00 0.000000000000D+00 0.119124269371D-03 0.000000000000D+00  6 2 2 -11 11 2 2 4 0.46132001D-01 0.12375355D-01 0.94275603D+04 0.64403948D+04 0.10284157D+05 0.12296608D+01  1  2 12  8  6  2       21 0.162997823465D+01
-.851267251464D-03 0.000000000000D+00 -.122069024295D-03 0.120517813053D-03 0.000000000000D+00  6 2 2 -11 11 2 2 4 0.46132001D-01 0.12316931D-01 0.65694348D+04 0.55436048D+04 0.93422312D+04 0.12368323D+01  1  2  5  8  6  2       21 -.175947893137D+01
0.850371138925D-03 0.000000000000D+00 0.000000000000D+00 0.119124269371D-03 0.000000000000D+00  6 2 -4 -11 11 2 -4 4 0.46132001D-01 0.12375355D-01 0.94275603D+04 0.64403948D+04 0.10284157D+05 0.12296608D+01  1  2 12  9  6  2       21 0.635604812508D+00
0.850371138925D-03 0.000000000000D+00 0.000000000000D+00 0.119124269371D-03 0.000000000000D+00  6 2 -4 -11 11 2 -4 4 0.46132001D-01 0.12375355D-01 0.94275603D+04 0.64403948D+04 0.10284157D+05 0.12296608D+01  1  2 12  9  6  2       21 0.635604812508D+00
-.851267251464D-03 0.000000000000D+00 -.122069024295D-03 0.120517803647D-03 0.000000000000D+00  6 2 -4 -11 11 2 -4 4 0.46132001D-01 0.12316931D-01 0.65694348D+04 0.55436104D+04 0.93422348D+04 0.12368322D+01  1  2  5  9  6  2       21 -.685576463717D+00
0.850371138925D-03 0.000000000000D+00 0.000000000000D+00 0.119124269371D-03 0.000000000000D+00  6 2 4 -11 11 2 4 4 0.46132001D-01 0.12375355D-01 0.94275603D+04 0.64403948D+04 0.10284157D+05 0.12296608D+01  1  2 12 10  6  2       21 0.634322728002D+00
0.850371138925D-03 0.000000000000D+00 0.000000000000D+00 0.119124269371D-03 0.000000000000D+00  6 2 4 -11 11 2 4 4 0.46132001D-01 0.12375355D-01 0.94275603D+04 0.64403948D+04 0.10284157D+05 0.12296608D+01  1  2 12 10  6  2       21 0.634322728002D+00
-.851267251464D-03 0.000000000000D+00 -.122069024295D-03 0.120517803647D-03 0.000000000000D+00  6 2 4 -11 11 2 4 4 0.46132001D-01 0.12316931D-01 0.65694348D+04 0.55436104D+04 0.93422348D+04 0.12368322D+01  1  2  5 10  6  2       21 -.684195378416D+00
  </mgrwgt>
  </event>
  <event npLO=' -1 ' npNLO=' 1 '>
  6     66 -.13243562E+02 0.10296823E+02 0.75467711E-02 0.17691415E+00
        2 -1    0    0  502    0 0.00000000E+00 0.00000000E+00 0.17820364E+04 0.17820364E+04 0.00000000E+00 0.0000E+00 0.9000E+01
       21 -1    0    0  501  502 0.00000000E+00 0.00000000E+00 -.20737263E+01 0.20737263E+01 0.00000000E+00 0.0000E+00 0.9000E+01
       23  2    1    2    0    0 -.66943863E+01 -.78236667E+01 0.17494464E+04 0.17519035E+04 0.92179740E+02 0.0000E+00 0.0000E+00
      -11  1    3    3    0    0 0.38119526E+02 -.22412609E+02 0.69594568E+03 0.69734913E+03 0.00000000E+00 0.0000E+00 0.9000E+01
       11  1    3    3    0    0 -.44813912E+02 0.14588942E+02 0.10535007E+04 0.10545543E+04 0.00000000E+00 0.0000E+00 0.9000E+01
        2  1    1    2  501    0 0.66943863E+01 0.78236667E+01 0.30516290E+02 0.32206654E+02 0.00000000E+00 0.0000E+00 0.9000E+01
#aMCatNLO 1  0  0  2  5 0.35611608D+01 0.00000000D+00  -5  6  0 0.00000000D+00 0.00000000D+00 0.00000000D+00 0.00000000D+00 0.00000000D+00
  <mgrwgt>
 -.7823929116D+04   36    2    0
 0.607902605830438D+02 0.000000000000000D+00 0.000000000000000D+00 0.607902605830438D+02
 0.607902605830438D+02 0.000000000000000D+00 0.000000000000000D+00 -.607902605830438D+02
 0.443353570834313D+02 0.381195258048813D+02 -.224126089793427D+02 0.319383763917860D+01
 0.513992532130885D+02 -.448139120979951D+02 0.145889422404839D+02 0.205124176449335D+02
 0.258459108695679D+02 0.669438629311374D+01 0.782366673885882D+01 -.237062552841121D+02
 0.000000000000000D+00 -.000000000000000D+00 0.000000000000000D+00 -.000000000000000D+00
 0.608396572936651D+02 0.000000000000000D+00 0.000000000000000D+00 0.608396572936651D+02
 0.196581104561777D+03 0.000000000000000D+00 0.000000000000000D+00 -.196581104561777D+03
 0.450300790941473D+02 0.381424053547519D+02 -.237205467498858D+02 0.319383763917860D+01
 0.509711990312452D+02 -.447877029732195D+02 0.130906652017878D+02 0.205124176449335D+02
 0.256313571046633D+02 0.670756562474569D+01 0.707025394317716D+01 -.237062552841121D+02
 0.135788126625386D+03 -.622680062781052D-01 0.355962760492083D+01 -.135741447268112D+03
0.181898904080D-04 0.000000000000D+00 0.000000000000D+00 0.360319103630D-02 0.000000000000D+00  6 2 21 -11 11 2 21 2 0.27415944D+00 0.31903482D-03 0.25829668D+04 0.10602457D+03 0.26548193D+04 0.14910294D+01  1  2  2  2  6  2       21 0.791084816212D+01
0.387971983932D-05 0.883114337679D-06 0.400724031085D-07 0.360319103630D-02 0.000000000000D+00  6 2 21 -11 11 2 21 4 0.27415944D+00 0.31903482D-03 0.25829668D+04 0.10602457D+03 0.26548193D+04 0.14910294D+01  1  2  3  2  6  2       21 0.102585710929D+01
0.160216747043D-05 0.000000000000D+00 0.000000000000D+00 0.360319103630D-02 0.000000000000D+00  6 2 21 -11 11 2 21 4 0.27415944D+00 0.31903482D-03 0.25829668D+04 0.10602457D+03 0.26548193D+04 0.14910294D+01  1  2 15  2  6  2       21 0.154907810030D+01
0.940424577401D-03 0.000000000000D+00 0.000000000000D+00 0.356200614096D-02 0.000000000000D+00  6 2 21 -11 11 2 21 4 0.27415944D+00 0.10325203D-02 0.27501737D+04 0.11714380D+03 0.26851193D+04 0.14824836D+01  1  2 12  2  6  2       21 0.168172723082D+03
0.940424577401D-03 0.000000000000D+00 0.000000000000D+00 0.356200614096D-02 0.000000000000D+00  6 2 21 -11 11 2 21 4 0.27415944D+00 0.10325203D-02 0.27501737D+04 0.11714380D+03 0.26851193D+04 0.14824836D+01  1  2 12  2  6  2       21 0.168172723082D+03
-.386018194749D-01 0.000000000000D+00 -.405261739035D-04 0.360319103630D-02 0.000000000000D+00  6 2 21 -11 11 2 21 4 0.27415944D+00 0.10321191D-02 0.25829668D+04 0.10602457D+03 0.26548193D+04 0.14910294D+01  1  2  5  2  6  2       21 -.706382613149D+04
0.349025782305D-03 0.000000000000D+00 0.000000000000D+00 0.356200614096D-02 0.000000000000D+00  6 2 -1 -11 11 2 -1 4 0.27415944D+00 0.10325203D-02 0.27501737D+04 0.11714380D+03 0.26851193D+04 0.14824836D+01  1  2 12  5  6  2       21 0.326738849108D+01
0.349025782305D-03 0.000000000000D+00 0.000000000000D+00 0.356200614096D-02 0.000000000000D+00  6 2 -3 -11 11 2 -3 4 0.27415944D+00 0.10325203D-02 0.27501737D+04 0.11714380D+03 0.26851193D+04 0.14824836D+01  1  2 12  5  6  2       21 0.305549255243D+01
0.349025782305D-03 0.000000000000D+00 0.000000000000D+00 0.356200614096D-02 0.000000000000D+00  6 2 -5 -11 11 2 -5 4 0.27415944D+00 0.10325203D-02 0.27501737D+04 0.11714380D+03 0.26851193D+04 0.14824836D+01  1  2 12  5  6  2       21 0.165495584497D+01
0.349025782305D-03 0.000000000000D+00 0.000000000000D+00 0.356200614096D-02 0.000000000000D+00  6 2 -1 -11 11 2 -1 4 0.27415944D+00 0.10325203D-02 0.27501737D+04 0.11714380D+03 0.26851193D+04 0.14824836D+01  1  2 12  5  6  2       21 0.326738849108D+01
0.349025782305D-03 0.000000000000D+00 0.000000000000D+00 0.356200614096D-02 0.000000000000D+00  6 2 -3 -11 11 2 -3 4 0.27415944D+00 0.10325203D-02 0.27501737D+04 0.11714380D+03 0.26851193D+04 0.14824836D+01  1  2 12  5  6  2       21 0.305549255243D+01
0.349025782305D-03 0.000000000000D+00 0.000000000000D+00 0.356200614096D-02 0.000000000000D+00  6 2 -5 -11 11 2 -5 4 0.27415944D+00 0.10325203D-02 0.27501737D+04 0.11714380D+03 0.26851193D+04 0.14824836D+01  1  2 12  5  6  2       21 0.165495584497D+01
-.143235382208D-01 0.000000000000D+00 -.148621361551D-04 0.360319103630D-02 0.000000000000D+00  6 2 -1 -11 11 2 -1 4 0.27415944D+00 0.10321191D-02 0.25829668D+04 0.10602457D+03 0.26548193D+04 0.14910294D+01  1  2  5  5  6  2       21 -.137224819547D+03
-.143235382208D-01 0.000000000000D+00 -.148621361551D-04 0.360319103630D-02 0.000000000000D+00  6 2 -3 -11 11 2 -3 4 0.27415944D+00 0.10321191D-02 0.25829668D+04 0.10602457D+03 0.26548193D+04 0.14910294D+01  1  2  5  5  6  2       21 -.128316974706D+03
-.143235382208D-01 0.000000000000D+00 -.148621361551D-04 0.360319103630D-02 0.000000000000D+00  6 2 -5 -11 11 2 -5 4 0.27415944D+00 0.10321191D-02 0.25829668D+04 0.10602457D+03 0.26548193D+04 0.14910294D+01  1  2  5  5  6  2       21 -.694274149307D+02
0.349025782305D-03 0.000000000000D+00 0.000000000000D+00 0.356200614096D-02 0.000000000000D+00  6 2 1 -11 11 2 1 4 0.27415944D+00 0.10325203D-02 0.27501737D+04 0.11714380D+03 0.26851193D+04 0.14824836D+01  1  2 12  6  6  2       21 0.337879846405D+01
0.349025782305D-03 0.000000000000D+00 0.000000000000D+00 0.356200614096D-02 0.000000000000D+00  6 2 3 -11 11 2 3 4 0.27415944D+00 0.10325203D-02 0.27501737D+04 0.11714380D+03 0.26851193D+04 0.14824836D+01  1  2 12  6  6  2       21 0.304934170139D+01
0.349025782305D-03 0.000000000000D+00 0.000000000000D+00 0.356200614096D-02 0.000000000000D+00  6 2 5 -11 11 2 5 4 0.27415944D+00 0.10325203D-02 0.27501737D+04 0.11714380D+03 0.26851193D+04 0.14824836D+01  1  2 12  6  6  2       21 0.165506085390D+01
0.349025782305D-03 0.000000000000D+00 0.000000000000D+00 0.356200614096D-02 0.000000000000D+00  6 2 1 -11 11 2 1 4 0.27415944D+00 0.10325203D-02 0.27501737D+04 0.11714380D+03 0.26851193D+04 0.14824836D+01  1  2 12  6  6  2       21 0.337879846405D+01
0.349025782305D-03 0.000000000000D+00 0.000000000000D+00 0.356200614096D-02 0.000000000000D+00  6 2 3 -11 11 2 3 4 0.27415944D+00 0.10325203D-02 0.27501737D+04 0.11714380D+03 0.26851193D+04 0.14824836D+01  1  2 12  6  6  2       21 0.304934170139D+01
0.349025782305D-03 0.000000000000D+00 0.000000000000D+00 0.356200614096D-02 0.000000000000D+00  6 2 5 -11 11 2 5 4 0.27415944D+00 0.10325203D-02 0.27501737D+04 0.11714380D+03 0.26851193D+04 0.14824836D+01  1  2 12  6  6  2       21 0.165506085390D+01
-.143235382208D-01 0.000000000000D+00 -.148621361551D-04 0.360319103630D-02 0.000000000000D+00  6 2 1 -11 11 2 1 4 0.27415944D+00 0.10321191D-02 0.25829668D+04 0.10602457D+03 0.26548193D+04 0.14910294D+01  1  2  5  6  6  2       21 -.141905480860D+03
-.143235382208D-01 0.000000000000D+00 -.148621361551D-04 0.360319103630D-02 0.000000000000D+00  6 2 3 -11 11 2 3 4 0.27415944D+00 0.10321191D-02 0.25829668D+04 0.10602457D+03 0.26548193D+04 0.14910294D+01  1  2  5  6  6  2       21 -.128058318935D+03
-.143235382208D-01 0.000000000000D+00 -.148621361551D-04 0.360319103630D-02 0.000000000000D+00  6 2 5 -11 11 2 5 4 0.27415944D+00 0.10321191D-02 0.25829668D+04 0.10602457D+03 0.26548193D+04 0.14910294D+01  1  2  5  6  6  2       21 -.694318323928D+02
0.349025782305D-03 0.000000000000D+00 0.000000000000D+00 0.356200614096D-02 0.000000000000D+00  6 2 -2 -11 11 2 -2 4 0.27415944D+00 0.10325203D-02 0.27501737D+04 0.11714380D+03 0.26851193D+04 0.14824836D+01  1  2 12  7  6  2       21 0.328189669994D+01
0.349025782305D-03 0.000000000000D+00 0.000000000000D+00 0.356200614096D-02 0.000000000000D+00  6 2 -2 -11 11 2 -2 4 0.27415944D+00 0.10325203D-02 0.27501737D+04 0.11714380D+03 0.26851193D+04 0.14824836D+01  1  2 12  7  6  2       21 0.328189669994D+01
-.143235382208D-01 0.000000000000D+00 -.148621361551D-04 0.360319103630D-02 0.000000000000D+00  6 2 -2 -11 11 2 -2 4 0.27415944D+00 0.10321191D-02 0.25829668D+04 0.10602457D+03 0.26548193D+04 0.14910294D+01  1  2  5  7  6  2       21 -.137835647883D+03
0.349025869410D-03 0.000000000000D+00 0.000000000000D+00 0.356200614096D-02 0.000000000000D+00  6 2 2 -11 11 2 2 4 0.27415944D+00 0.10325203D-02 0.27501737D+04 0.11714380D+03 0.26851193D+04 0.14824836D+01  1  2 12  8  6  2       21 0.346287373883D+01
0.349025869410D-03 0.000000000000D+00 0.000000000000D+00 0.356200614096D-02 0.000000000000D+00  6 2 2 -11 11 2 2 4 0.27415944D+00 0.10325203D-02 0.27501737D+04 0.11714380D+03 0.26851193D+04 0.14824836D+01  1  2 12  8  6  2       21 0.346287373883D+01
-.143235417954D-01 0.000000000000D+00 -.148621398642D-04 0.360319061850D-02 0.000000000000D+00  6 2 2 -11 11 2 2 4 0.27415944D+00 0.10321191D-02 0.25829668D+04 0.10602468D+03 0.26548196D+04 0.14910294D+01  1  2  5  8  6  2       21 -.145438216115D+03
0.349025782305D-03 0.000000000000D+00 0.000000000000D+00 0.356200614096D-02 0.000000000000D+00  6 2 -4 -11 11 2 -4 4 0.27415944D+00 0.10325203D-02 0.27501737D+04 0.11714380D+03 0.26851193D+04 0.14824836D+01  1  2 12  9  6  2       21 0.243719197650D+01
0.349025782305D-03 0.000000000000D+00 0.000000000000D+00 0.356200614096D-02 0.000000000000D+00  6 2 -4 -11 11 2 -4 4 0.27415944D+00 0.10325203D-02 0.27501737D+04 0.11714380D+03 0.26851193D+04 0.14824836D+01  1  2 12  9  6  2       21 0.243719197650D+01
-.143235382208D-01 0.000000000000D+00 -.148621361551D-04 0.360319103630D-02 0.000000000000D+00  6 2 -4 -11 11 2 -4 4 0.27415944D+00 0.10321191D-02 0.25829668D+04 0.10602457D+03 0.26548193D+04 0.14910294D+01  1  2  5  9  6  2       21 -.102321551822D+03
0.349025782305D-03 0.000000000000D+00 0.000000000000D+00 0.356200614096D-02 0.000000000000D+00  6 2 4 -11 11 2 4 4 0.27415944D+00 0.10325203D-02 0.27501737D+04 0.11714380D+03 0.26851193D+04 0.14824836D+01  1  2 12 10  6  2       21 0.243751092713D+01
0.349025782305D-03 0.000000000000D+00 0.000000000000D+00 0.356200614096D-02 0.000000000000D+00  6 2 4 -11 11 2 4 4 0.27415944D+00 0.10325203D-02 0.27501737D+04 0.11714380D+03 0.26851193D+04 0.14824836D+01  1  2 12 10  6  2       21 0.243751092713D+01
-.143235382208D-01 0.000000000000D+00 -.148621361551D-04 0.360319103630D-02 0.000000000000D+00  6 2 4 -11 11 2 4 4 0.27415944D+00 0.10321191D-02 0.25829668D+04 0.10602457D+03 0.26548193D+04 0.14910294D+01  1  2  5 10  6  2       21 -.102334979563D+03
  </mgrwgt>
  </event>
  <event npLO=' -1 ' npNLO=' 1 '>
  7     66 0.13243562E+02 0.94582447E+01 0.75467711E-02 0.18198907E+00
        2 -1    0    0  502    0 0.00000000E+00 0.00000000E+00 0.21909607E+04 0.21909607E+04 0.00000000E+00 0.0000E+00 0.9000E+01
       21 -1    0    0  501  503 0.00000000E+00 0.00000000E+00 -.24101070E+03 0.24101070E+03 0.00000000E+00 0.0000E+00 0.9000E+01
       23  2    1    2    0    0 0.84988145E+01 0.12504559E+01 0.21782997E+04 0.21801569E+04 0.89560268E+02 0.0000E+00 0.0000E+00
      -13  1    3    3    0    0 0.26373973E+02 -.30426684E+02 0.55880310E+03 0.56025197E+03 0.00000000E+00 0.0000E+00 0.9000E+01
       13  1    3    3    0    0 -.17875158E+02 0.31677140E+02 0.16194966E+04 0.16199050E+04 0.00000000E+00 0.0000E+00 0.9000E+01
        2  1    1    2  501    0 -.10541817E+02 -.46755950E+00 0.93536983E+01 0.14101071E+02 0.00000000E+00 0.0000E+00 0.9000E+01
       21  1    1    2  502  503 0.20430029E+01 -.78289642E+00 -.23770334E+03 0.23771341E+03 0.00000000E+00 0.0000E+00 0.9000E+01
#aMCatNLO 2  0  0  2  5 0.23961844D+02 0.00000000D+00  -5  6  0 0.00000000D+00 0.00000000D+00 0.00000000D+00 0.00000000D+00 0.00000000D+00
  <mgrwgt>
 0.1281483571D+06    1    2    0
 0.850531830850030D+02 0.000000000000000D+00 0.000000000000000D+00 0.850531830850030D+02
 0.850531830850030D+02 0.000000000000000D+00 0.000000000000000D+00 -.850531830850030D+02
 0.408426879676268D+02 0.268617162183307D+02 -.306135919915635D+02 0.306289856196345D+01
 0.677870422520777D+02 -.170589286160265D+02 0.313643541199408D+02 0.576225072553879D+02
 0.614766359503016D+02 -.980278760230419D+01 -.750762128377316D+00 -.606854058173513D+02
 0.000000000000000D+00 0.000000000000000D+00 -.000000000000000D+00 -.000000000000000D+00
 0.850604132348582D+02 0.000000000000000D+00 0.000000000000000D+00 0.850604132348582D+02
 0.620788156222786D+04 0.000000000000000D+00 0.000000000000000D+00 -.620788156222786D+04
 0.403825570142951D+02 0.263739727090407D+02 -.304266844555021D+02 0.306289856196345D+01
 0.681418802648122D+02 -.178751582217008D+02 0.316771403724508D+02 0.576225072553879D+02
 0.615959982933791D+02 -.105418174265532D+02 -.467559500571300D+00 -.606854058173513D+02
 0.612282153989024D+04 0.204300293921325D+01 -.782896416377465D+00 -.612282114899301D+04
0.333053785303D+03 0.000000000000D+00 0.000000000000D+00 0.827928387989D-02 0.189631010593D+03  6 2 21 -13 13 2 21 4 0.33707088D+00 0.37078569D-01 0.19971442D+04 0.83386670D+02 0.24579894D+04 0.15122639D+01  1  2  1  2  6  2       21 0.128148357128D+06
  </mgrwgt>
  </event>
  <event npLO=' -1 ' npNLO=' 1 '>
  6     66 0.13243562E+02 0.13213691E+03 0.75467711E-02 0.11173913E+00
        2 -1    0    0  502    0 0.00000000E+00 0.00000000E+00 0.26895041E+04 0.26895041E+04 0.00000000E+00 0.0000E+00 0.9000E+01
       21 -1    0    0  501  502 0.00000000E+00 0.00000000E+00 -.80400394E+01 0.80400394E+01 0.00000000E+00 0.0000E+00 0.9000E+01
       23  2    1    2    0    0 0.11312215E+03 0.68290142E+02 0.15973107E+04 0.16053680E+04 0.91350125E+02 0.0000E+00 0.0000E+00
      -13  1    3    3    0    0 0.54251131E+02 -.40842585E+01 0.31464012E+03 0.31930905E+03 0.00000000E+00 0.0000E+00 0.9000E+01
       13  1    3    3    0    0 0.58871018E+02 0.72374400E+02 0.12826706E+04 0.12860590E+04 0.00000000E+00 0.0000E+00 0.9000E+01
        2  1    1    2  501    0 -.11312215E+03 -.68290142E+02 0.10841533E+04 0.10921761E+04 0.00000000E+00 0.0000E+00 0.9000E+01
#aMCatNLO 1  0  0  2  5 0.12946509D+02 0.00000000D+00  -5  6  0 0.00000000D+00 0.00000000D+00 0.00000000D+00 0.00000000D+00 0.00000000D+00
  <mgrwgt>
 0.5363970047D+02   38    2    0
 0.147050054500562D+03 0.000000000000000D+00 0.000000000000000D+00 0.147050054500562D+03
 0.147050054500562D+03 0.000000000000000D+00 0.000000000000000D+00 -.147050054500562D+03
 0.600274900886636D+02 0.542511311580919D+02 -.408425853554680D+01 -.253659844403274D+02
 0.101209647310223D+03 0.588710184125883D+02 0.723744002502480D+02 0.392369989696124D+02
 0.132862971602238D+03 -.113122149570680D+03 -.682901417147012D+02 -.138710145292851D+02
 0.000000000000000D+00 0.000000000000000D+00 -.000000000000000D+00 -.000000000000000D+00
 0.150379854414738D+03 0.000000000000000D+00 0.000000000000000D+00 0.150379854414738D+03
 0.156790342143721D+03 0.000000000000000D+00 0.000000000000000D+00 -.156790342143721D+03
 0.591160711098453D+02 0.533594751234366D+02 -.201074896213134D+01 -.253659844403274D+02
 0.102920869444233D+03 0.573433302581427D+02 0.759269764571267D+02 0.392369989696124D+02
 0.132274342638564D+03 -.115106405235669D+03 -.636758364696869D+02 -.138710145292851D+02
 0.128589133658174D+02 0.440359985409022D+01 -.102403910253084D+02 -.641048772898272D+01
0.732435244783D-03 0.000000000000D+00 0.000000000000D+00 0.332443584446D-03 0.000000000000D+00  6 2 21 -13 13 2 21 2 0.41376986D+00 0.12369291D-02 0.19577047D+05 0.17460164D+05 0.21429489D+05 0.11850160D+01  1  2  2  2  6  2       21 0.100086356613D+02
-.750841206473D-04 0.355595361809D-04 0.161355784568D-05 0.332443584446D-03 0.000000000000D+00  6 2 21 -13 13 2 21 4 0.41376986D+00 0.12369291D-02 0.19577047D+05 0.17460164D+05 0.21429489D+05 0.11850160D+01  1  2  3  2  6  2       21 -.151608141483D+01
0.689897434239D-04 0.000000000000D+00 0.000000000000D+00 0.332443584446D-03 0.000000000000D+00  6 2 21 -13 13 2 21 4 0.41376986D+00 0.12369291D-02 0.19577047D+05 0.17460164D+05 0.21429489D+05 0.11850160D+01  1  2 15  2  6  2       21 0.132384946440D+01
0.183930896173D-02 0.000000000000D+00 0.000000000000D+00 0.332418113496D-03 0.000000000000D+00  6 2 21 -13 13 2 21 4 0.41376986D+00 0.13487250D-02 0.21204831D+05 0.17478922D+05 0.21448426D+05 0.11849706D+01  1  2 12  2  6  2       21 0.309633760905D+02
0.183930896173D-02 0.000000000000D+00 0.000000000000D+00 0.332418113496D-03 0.000000000000D+00  6 2 21 -13 13 2 21 4 0.41376986D+00 0.13487250D-02 0.21204831D+05 0.17478922D+05 0.21448426D+05 0.11849706D+01  1  2 12  2  6  2       21 0.309633760905D+02
-.242054755282D-02 0.000000000000D+00 0.000000000000D+00 0.332443584446D-03 0.000000000000D+00  6 2 21 -13 13 2 21 4 0.41376986D+00 0.12369291D-02 0.19577047D+05 0.17460164D+05 0.21429489D+05 0.11850160D+01  1  2  4  2  6  2       21 -.464480721672D+02
-.117043083964D-01 0.000000000000D+00 -.198887578749D-02 0.332443584446D-03 0.000000000000D+00  6 2 21 -13 13 2 21 4 0.41376986D+00 0.13578005D-02 0.19577047D+05 0.17460164D+05 0.21429489D+05 0.11850160D+01  1  2  5  2  6  2       21 -.198069591579D+03
0.116857812888D-01 0.000000000000D+00 0.195471993283D-02 0.332443584446D-03 0.000000000000D+00  6 2 21 -13 13 2 21 4 0.41376986D+00 0.12369291D-02 0.19577047D+05 0.17460164D+05 0.21429489D+05 0.11850160D+01  1  2  6  2  6  2       21 0.227630571414D+03
0.416594527508D-04 0.000000000000D+00 0.000000000000D+00 0.332418113496D-03 0.000000000000D+00  6 2 -1 -13 13 2 -1 4 0.41376986D+00 0.13487250D-02 0.21204831D+05 0.17478922D+05 0.21448426D+05 0.11849706D+01  1  2 12  5  6  2       21 0.373315072773D-01
0.416594527508D-04 0.000000000000D+00 0.000000000000D+00 0.332418113496D-03 0.000000000000D+00  6 2 -3 -13 13 2 -3 4 0.41376986D+00 0.13487250D-02 0.21204831D+05 0.17478922D+05 0.21448426D+05 0.11849706D+01  1  2 12  5  6  2       21 0.351169938166D-01
0.416594527508D-04 0.000000000000D+00 0.000000000000D+00 0.332418113496D-03 0.000000000000D+00  6 2 -5 -13 13 2 -5 4 0.41376986D+00 0.13487250D-02 0.21204831D+05 0.17478922D+05 0.21448426D+05 0.11849706D+01  1  2 12  5  6  2       21 0.215428399314D-01
0.416594527508D-04 0.000000000000D+00 0.000000000000D+00 0.332418113496D-03 0.000000000000D+00  6 2 -1 -13 13 2 -1 4 0.41376986D+00 0.13487250D-02 0.21204831D+05 0.17478922D+05 0.21448426D+05 0.11849706D+01  1  2 12  5  6  2       21 0.373315072773D-01
0.416594527508D-04 0.000000000000D+00 0.000000000000D+00 0.332418113496D-03 0.000000000000D+00  6 2 -3 -13 13 2 -3 4 0.41376986D+00 0.13487250D-02 0.21204831D+05 0.17478922D+05 0.21448426D+05 0.11849706D+01  1  2 12  5  6  2       21 0.351169938166D-01
0.416594527508D-04 0.000000000000D+00 0.000000000000D+00 0.332418113496D-03 0.000000000000D+00  6 2 -5 -13 13 2 -5 4 0.41376986D+00 0.13487250D-02 0.21204831D+05 0.17478922D+05 0.21448426D+05 0.11849706D+01  1  2 12  5  6  2       21 0.215428399314D-01
-.237613835267D-03 0.000000000000D+00 -.469644922792D-04 0.332443584446D-03 0.000000000000D+00  6 2 -1 -13 13 2 -1 4 0.41376986D+00 0.13578005D-02 0.19577047D+05 0.17460164D+05 0.21429489D+05 0.11850160D+01  1  2  5  5  6  2       21 -.214736752093D+00
-.237613835267D-03 0.000000000000D+00 -.469644922792D-04 0.332443584446D-03 0.000000000000D+00  6 2 -3 -13 13 2 -3 4 0.41376986D+00 0.13578005D-02 0.19577047D+05 0.17460164D+05 0.21429489D+05 0.11850160D+01  1  2  5  5  6  2       21 -.201970792404D+00
-.237613835267D-03 0.000000000000D+00 -.469644922792D-04 0.332443584446D-03 0.000000000000D+00  6 2 -5 -13 13 2 -5 4 0.41376986D+00 0.13578005D-02 0.19577047D+05 0.17460164D+05 0.21429489D+05 0.11850160D+01  1  2  5  5  6  2       21 -.123823817353D+00
0.416594527508D-04 0.000000000000D+00 0.000000000000D+00 0.332418113496D-03 0.000000000000D+00  6 2 1 -13 13 2 1 4 0.41376986D+00 0.13487250D-02 0.21204831D+05 0.17478922D+05 0.21448426D+05 0.11849706D+01  1  2 12  6  6  2       21 0.387551526748D-01
0.416594527508D-04 0.000000000000D+00 0.000000000000D+00 0.332418113496D-03 0.000000000000D+00  6 2 3 -13 13 2 3 4 0.41376986D+00 0.13487250D-02 0.21204831D+05 0.17478922D+05 0.21448426D+05 0.11849706D+01  1  2 12  6  6  2       21 0.350594089349D-01
0.416594527508D-04 0.000000000000D+00 0.000000000000D+00 0.332418113496D-03 0.000000000000D+00  6 2 5 -13 13 2 5 4 0.41376986D+00 0.13487250D-02 0.21204831D+05 0.17478922D+05 0.21448426D+05 0.11849706D+01  1  2 12  6  6  2       21 0.215432555718D-01
0.416594527508D-04 0.000000000000D+00 0.000000000000D+00 0.332418113496D-03 0.000000000000D+00  6 2 1 -13 13 2 1 4 0.41376986D+00 0.13487250D-02 0.21204831D+05 0.17478922D+05 0.21448426D+05 0.11849706D+01  1  2 12  6  6  2       21 0.387551526748D-01
0.416594527508D-04 0.000000000000D+00 0.000000000000D+00 0.332418113496D-03 0.000000000000D+00  6 2 3 -13 13 2 3 4 0.41376986D+00 0.13487250D-02 0.21204831D+05 0.17478922D+05 0.21448426D+05 0.11849706D+01  1  2 12  6  6  2       21 0.350594089349D-01
0.416594527508D-04 0.000000000000D+00 0.000000000000D+00 0.332418113496D-03 0.000000000000D+00  6 2 5 -13 13 2 5 4 0.41376986D+00 0.13487250D-02 0.21204831D+05 0.17478922D+05 0.21448426D+05 0.11849706D+01  1  2 12  6  6  2       21 0.215432555718D-01
-.237613835267D-03 0.000000000000D+00 -.469644922792D-04 0.332443584446D-03 0.000000000000D+00  6 2 1 -13 13 2 1 4 0.41376986D+00 0.13578005D-02 0.19577047D+05 0.17460164D+05 0.21429489D+05 0.11850160D+01  1  2  5  6  6  2       21 -.222970211153D+00
-.237613835267D-03 0.000000000000D+00 -.469644922792D-04 0.332443584446D-03 0.000000000000D+00  6 2 3 -13 13 2 3 4 0.41376986D+00 0.13578005D-02 0.19577047D+05 0.17460164D+05 0.21429489D+05 0.11850160D+01  1  2  5  6  6  2       21 -.201639456507D+00
-.237613835267D-03 0.000000000000D+00 -.469644922792D-04 0.332443584446D-03 0.000000000000D+00  6 2 5 -13 13 2 5 4 0.41376986D+00 0.13578005D-02 0.19577047D+05 0.17460164D+05 0.21429489D+05 0.11850160D+01  1  2  5  6  6  2       21 -.123826119829D+00
0.416594527508D-04 0.000000000000D+00 0.000000000000D+00 0.332418113496D-03 0.000000000000D+00  6 2 -2 -13 13 2 -2 4 0.41376986D+00 0.13487250D-02 0.21204831D+05 0.17478922D+05 0.21448426D+05 0.11849706D+01  1  2 12  7  6  2       21 0.374011212967D-01
0.416594527508D-04 0.000000000000D+00 0.000000000000D+00 0.332418113496D-03 0.000000000000D+00  6 2 -2 -13 13 2 -2 4 0.41376986D+00 0.13487250D-02 0.21204831D+05 0.17478922D+05 0.21448426D+05 0.11849706D+01  1  2 12  7  6  2       21 0.374011212967D-01
-.237613835267D-03 0.000000000000D+00 -.469644922792D-04 0.332443584446D-03 0.000000000000D+00  6 2 -2 -13 13 2 -2 4 0.41376986D+00 0.13578005D-02 0.19577047D+05 0.17460164D+05 0.21429489D+05 0.11850160D+01  1  2  5  7  6  2       21 -.215129723065D+00
0.416594527508D-04 0.000000000000D+00 0.000000000000D+00 0.332418113496D-03 0.000000000000D+00  6 2 2 -13 13 2 2 4 0.41376986D+00 0.13487250D-02 0.21204831D+05 0.17478922D+05 0.21448426D+05 0.11849706D+01  1  2 12  8  6  2       21 0.397775523605D-01
0.416594527508D-04 0.000000000000D+00 0.000000000000D+00 0.332418113496D-03 0.000000000000D+00  6 2 2 -13 13 2 2 4 0.41376986D+00 0.13487250D-02 0.21204831D+05 0.17478922D+05 0.21448426D+05 0.11849706D+01  1  2 12  8  6  2       21 0.397775523605D-01
-.237613835267D-03 0.000000000000D+00 -.469644922792D-04 0.332443560723D-03 0.000000000000D+00  6 2 2 -13 13 2 2 4 0.41376986D+00 0.13578005D-02 0.19577047D+05 0.17460182D+05 0.21429499D+05 0.11850160D+01  1  2  5  8  6  2       21 -.228878361835D+00
0.416594527508D-04 0.000000000000D+00 0.000000000000D+00 0.332418113496D-03 0.000000000000D+00  6 2 -4 -13 13 2 -4 4 0.41376986D+00 0.13487250D-02 0.21204831D+05 0.17478922D+05 0.21448426D+05 0.11849706D+01  1  2 12  9  6  2       21 0.288653903420D-01
0.416594527508D-04 0.000000000000D+00 0.000000000000D+00 0.332418113496D-03 0.000000000000D+00  6 2 -4 -13 13 2 -4 4 0.41376986D+00 0.13487250D-02 0.21204831D+05 0.17478922D+05 0.21448426D+05 0.11849706D+01  1  2 12  9  6  2       21 0.288653903420D-01
-.237613835267D-03 0.000000000000D+00 -.469644922792D-04 0.332443584446D-03 0.000000000000D+00  6 2 -4 -13 13 2 -4 4 0.41376986D+00 0.13578005D-02 0.19577047D+05 0.17460164D+05 0.21429489D+05 0.11850160D+01  1  2  5  9  6  2       21 -.165950534518D+00
0.416594527508D-04 0.000000000000D+00 0.000000000000D+00 0.332418113496D-03 0.000000000000D+00  6 2 4 -13 13 2 4 4 0.41376986D+00 0.13487250D-02 0.21204831D+05 0.17478922D+05 0.21448426D+05 0.11849706D+01  1  2 12 10  6  2       21 0.288665234251D-01
0.416594527508D-04 0.000000000000D+00 0.000000000000D+00 0.332418113496D-03 0.000000000000D+00  6 2 4 -13 13 2 4 4 0.41376986D+00 0.13487250D-02 0.21204831D+05 0.17478922D+05 0.21448426D+05 0.11849706D+01  1  2 12 10  6  2       21 0.288665234251D-01
-.237613835267D-03 0.000000000000D+00 -.469644922792D-04 0.332443584446D-03 0.000000000000D+00  6 2 4 -13 13 2 4 4 0.41376986D+00 0.13578005D-02 0.19577047D+05 0.17460164D+05 0.21429489D+05 0.11850160D+01  1  2  5 10  6  2       21 -.165956809238D+00
  </mgrwgt>
  </event>
  <event npLO=' -1 ' npNLO=' 1 '>
  6     66 -.13243562E+02 0.19239020E+02 0.75467711E-02 0.12143029E+00
        2 -1    0    0  502    0 0.00000000E+00 0.00000000E+00 0.49250763E+02 0.49250763E+02 0.00000000E+00 0.0000E+00 0.9000E+01
       21 -1    0    0  501  502 0.00000000E+00 0.00000000E+00 -.23124915E+03 0.23124915E+03 0.00000000E+00 0.0000E+00 0.9000E+01
       23  2    1    2    0    0 0.18992348E+02 0.30709294E+01 0.43855834E+01 0.93125624E+02 0.91011036E+02 0.0000E+00 0.0000E+00
      -11  1    3    3    0    0 0.13947854E+02 -.15901794E+02 0.44051911E+02 0.48866967E+02 0.00000000E+00 0.0000E+00 0.9000E+01
       11  1    3    3    0    0 0.50444940E+01 0.18972723E+02 -.39666327E+02 0.44258656E+02 0.00000000E+00 0.0000E+00 0.9000E+01
        2  1    1    2  501    0 -.18992348E+02 -.30709294E+01 -.18638397E+03 0.18737429E+03 0.00000000E+00 0.0000E+00 0.9000E+01
#aMCatNLO 1  0  0  2  1 0.23952622D+02 0.00000000D+00  -5  6  0 0.00000000D+00 0.00000000D+00 0.00000000D+00 0.00000000D+00 0.00000000D+00
  <mgrwgt>
 -.2474475669D+03   14    2    0
 0.106720180674707D+03 0.000000000000000D+00 0.000000000000000D+00 0.106720180674707D+03
 0.106720180674707D+03 0.000000000000000D+00 0.000000000000000D+00 -.106720180674707D+03
 0.101782795109122D+03 0.139478537178821D+02 -.159017935503760D+02 0.995606735552313D+02
 0.243409523683995D+02 0.504449396308762D+01 0.189727229940322D+02 -.143899557000287D+02
 0.873166138718931D+02 -.189923476809697D+02 -.307092944365620D+01 -.851707178552026D+02
 0.000000000000000D+00 -.000000000000000D+00 -.000000000000000D+00 -.000000000000000D+00
 0.119181112655801D+03 0.000000000000000D+00 0.000000000000000D+00 0.119181112655801D+03
 0.372496861680971D+03 0.000000000000000D+00 0.000000000000000D+00 -.372496861680971D+03
 0.102599032549921D+03 0.148602857845526D+02 0.198344565796479D+02 0.995606735552313D+02
 0.327678784055888D+02 0.529944778694310D+01 0.289582265221496D+02 -.143899557000287D+02
 0.915449716620569D+02 -.181938469140182D+02 0.282030954170911D+02 -.851707178552026D+02
 0.264766091719205D+03 -.196588665747751D+01 -.769957785188886D+02 -.253315749025169D+03
0.502960029855D-02 0.000000000000D+00 0.000000000000D+00 0.159093645475D-01 0.000000000000D+00  6 2 21 -11 11 2 21 2 0.75770405D-02 0.35576792D-01 0.90068926D+03 0.37013988D+03 0.31506510D+04 0.13938237D+01  1  2  2  2  6  2       21 0.889485718907D+02
0.455150786206D-03 0.244185755759D-03 0.110802300683D-04 0.159093645475D-01 0.000000000000D+00  6 2 21 -11 11 2 21 4 0.75770405D-02 0.35576792D-01 0.90068926D+03 0.37013988D+03 0.31506510D+04 0.13938237D+01  1  2  3  2  6  2       21 0.865382777948D+01
0.505188500430D-03 0.000000000000D+00 0.000000000000D+00 0.159093645475D-01 0.000000000000D+00  6 2 21 -11 11 2 21 4 0.75770405D-02 0.35576792D-01 0.90068926D+03 0.37013988D+03 0.31506510D+04 0.13938237D+01  1  2 15  2  6  2       21 0.173569997989D+02
-.903352503761D-01 0.000000000000D+00 -.137754255141D-01 0.159093645475D-01 0.000000000000D+00  6 2 21 -11 11 2 21 4 0.75770405D-02 0.13078171D+00 0.90068926D+03 0.37013988D+03 0.31506510D+04 0.13938237D+01  1  2  5  2  6  2       21 -.201500614822D+03
-.367377755406D-01 0.000000000000D+00 -.530106253012D-02 0.159093645475D-01 0.000000000000D+00  6 2 -1 -11 11 2 -1 4 0.75770405D-02 0.13078171D+00 0.90068926D+03 0.37013988D+03 0.31506510D+04 0.13938237D+01  1  2  5  5  6  2       21 -.117616087323D+02
-.367377755406D-01 0.000000000000D+00 -.530106253012D-02 0.159093645475D-01 0.000000000000D+00  6 2 -3 -11 11 2 -3 4 0.75770405D-02 0.13078171D+00 0.90068926D+03 0.37013988D+03 0.31506510D+04 0.13938237D+01  1  2  5  5  6  2       21 -.476239780192D+01
-.367377755406D-01 0.000000000000D+00 -.530106253012D-02 0.159093645475D-01 0.000000000000D+00  6 2 -5 -11 11 2 -5 4 0.75770405D-02 0.13078171D+00 0.90068926D+03 0.37013988D+03 0.31506510D+04 0.13938237D+01  1  2  5  5  6  2       21 -.138527856490D+01
-.367377755406D-01 0.000000000000D+00 -.530106253012D-02 0.159093645475D-01 0.000000000000D+00  6 2 1 -11 11 2 1 4 0.75770405D-02 0.13078171D+00 0.90068926D+03 0.37013988D+03 0.31506510D+04 0.13938237D+01  1  2  5  6  6  2       21 -.438390398083D+02
-.367377755406D-01 0.000000000000D+00 -.530106253012D-02 0.159093645475D-01 0.000000000000D+00  6 2 3 -11 11 2 3 4 0.75770405D-02 0.13078171D+00 0.90068926D+03 0.37013988D+03 0.31506510D+04 0.13938237D+01  1  2  5  6  6  2       21 -.640676234079D+01
-.367377755406D-01 0.000000000000D+00 -.530106253012D-02 0.159093645475D-01 0.000000000000D+00  6 2 5 -11 11 2 5 4 0.75770405D-02 0.13078171D+00 0.90068926D+03 0.37013988D+03 0.31506510D+04 0.13938237D+01  1  2  5  6  6  2       21 -.137567410622D+01
-.367377755406D-01 0.000000000000D+00 -.530106253012D-02 0.159093645475D-01 0.000000000000D+00  6 2 -2 -11 11 2 -2 4 0.75770405D-02 0.13078171D+00 0.90068926D+03 0.37013988D+03 0.31506510D+04 0.13938237D+01  1  2  5  7  6  2       21 -.827623155935D+01
-.367377801679D-01 0.000000000000D+00 -.530106319782D-02 0.159093629496D-01 0.000000000000D+00  6 2 2 -11 11 2 2 4 0.75770405D-02 0.13078171D+00 0.90068926D+03 0.37014025D+03 0.31506516D+04 0.13938236D+01  1  2  5  8  6  2       21 -.780574459941D+02
-.367377755406D-01 0.000000000000D+00 -.530106253012D-02 0.159093645475D-01 0.000000000000D+00  6 2 -4 -11 11 2 -4 4 0.75770405D-02 0.13078171D+00 0.90068926D+03 0.37013988D+03 0.31506510D+04 0.13938237D+01  1  2  5  9  6  2       21 -.253537806218D+01
-.367377755406D-01 0.000000000000D+00 -.530106253012D-02 0.159093645475D-01 0.000000000000D+00  6 2 4 -11 11 2 4 4 0.75770405D-02 0.13078171D+00 0.90068926D+03 0.37013988D+03 0.31506510D+04 0.13938237D+01  1  2  5 10  6  2       21 -.250653458016D+01
  </mgrwgt>
  </event>
  <event npLO=' -1 ' npNLO=' 1 '>
  6     66 -.13243562E+02 0.14586175E+02 0.75467711E-02 0.14718137E+00
        2 -1    0    0  502    0 0.00000000E+00 0.00000000E+00 0.30185763E+03 0.30185763E+03 0.00000000E+00 0.0000E+00 0.9000E+01
       21 -1    0    0  501  502 0.00000000E+00 0.00000000E+00 -.11643112E+02 0.11643112E+02 0.00000000E+00 0.0000E+00 0.9000E+01
       23  2    1    2    0    0 -.10138561E+02 0.10486472E+02 0.28188201E+03 0.29670231E+03 0.91444181E+02 0.0000E+00 0.0000E+00
      -13  1    3    3    0    0 -.26727435E+02 -.35083440E+02 0.13462650E+03 0.14166686E+03 0.00000000E+00 0.0000E+00 0.9000E+01
       13  1    3    3    0    0 0.16588873E+02 0.45569912E+02 0.14725551E+03 0.15503546E+03 0.00000000E+00 0.0000E+00 0.9000E+01
        2  1    1    2  501    0 0.10138561E+02 -.10486472E+02 0.83325066E+01 0.16798428E+02 0.00000000E+00 0.0000E+00 0.9000E+01
#aMCatNLO 1  0  0  2  2 0.25213683D+02 0.00000000D+00  -5  6  0 0.00000000D+00 0.00000000D+00 0.00000000D+00 0.00000000D+00 0.00000000D+00
  <mgrwgt>
 -.2056862102D+03   14    2    0
 0.592837426969668D+02 0.000000000000000D+00 0.000000000000000D+00 0.592837426969668D+02
 0.592837426969668D+02 0.000000000000000D+00 0.000000000000000D+00 -.592837426969668D+02
 0.450553501457594D+02 -.267274345192552D+02 -.350834401891997D+02 0.920766231281085D+01
 0.494911720183410D+02 0.165888734230072D+02 0.455699121385143D+02 0.987767654828579D+01
 0.240209632298332D+02 0.101385610962480D+02 -.104864719493146D+02 -.190853388610966D+02
 0.000000000000000D+00 0.000000000000000D+00 -.000000000000000D+00 -.000000000000000D+00
 0.625435801487038D+02 0.000000000000000D+00 0.000000000000000D+00 0.625435801487038D+02
 0.135416500112066D+03 0.000000000000000D+00 0.000000000000000D+00 -.135416500112066D+03
 0.392867105026438D+02 -.275108573009222D+02 -.264918347311032D+02 0.920766231281085D+01
 0.596085746737164D+02 0.155754854837564D+02 0.566834890650246D+02 0.987767654828579D+01
 0.221795786102152D+02 0.970942103582499D+01 -.578019818284011D+01 -.190853388610966D+02
 0.768852164741942D+02 0.222595078134082D+01 -.244114561510813D+02 -.728729199633622D+02
0.140946243410D-03 0.000000000000D+00 0.000000000000D+00 0.214637904890D-02 0.000000000000D+00  6 2 21 -13 13 2 21 2 0.46439635D-01 0.17912480D-02 0.28722137D+04 0.21275652D+03 0.28722291D+04 0.14343675D+01  1  2  2  2  6  2       21 0.447708565143D+02
0.117376490995D-04 0.684290260172D-05 0.310505151812D-06 0.214637904890D-02 0.000000000000D+00  6 2 21 -13 13 2 21 4 0.46439635D-01 0.17912480D-02 0.28722137D+04 0.21275652D+03 0.28722291D+04 0.14343675D+01  1  2  3  2  6  2       21 -.396840716194D+01
0.138589056919D-04 0.000000000000D+00 0.000000000000D+00 0.214637904890D-02 0.000000000000D+00  6 2 21 -13 13 2 21 4 0.46439635D-01 0.17912480D-02 0.28722137D+04 0.21275652D+03 0.28722291D+04 0.14343675D+01  1  2 15  2  6  2       21 0.905715337101D+01
-.129997476450D-02 0.000000000000D+00 -.189826233295D-03 0.214637904890D-02 0.000000000000D+00  6 2 21 -13 13 2 21 4 0.46439635D-01 0.43064550D-02 0.28722137D+04 0.21275652D+03 0.28722291D+04 0.14343675D+01  1  2  5  2  6  2       21 -.225381918395D+03
-.345295824543D-03 0.000000000000D+00 -.576499126830D-04 0.214637904890D-02 0.000000000000D+00  6 2 -1 -13 13 2 -1 4 0.46439635D-01 0.43064550D-02 0.28722137D+04 0.21275652D+03 0.28722291D+04 0.14343675D+01  1  2  5  5  6  2       21 -.368255708780D+01
-.345295824543D-03 0.000000000000D+00 -.576499126830D-04 0.214637904890D-02 0.000000000000D+00  6 2 -3 -13 13 2 -3 4 0.46439635D-01 0.43064550D-02 0.28722137D+04 0.21275652D+03 0.28722291D+04 0.14343675D+01  1  2  5  5  6  2       21 -.329465056932D+01
-.345295824543D-03 0.000000000000D+00 -.576499126830D-04 0.214637904890D-02 0.000000000000D+00  6 2 -5 -13 13 2 -5 4 0.46439635D-01 0.43064550D-02 0.28722137D+04 0.21275652D+03 0.28722291D+04 0.14343675D+01  1  2  5  5  6  2       21 -.155707369719D+01
-.345295824543D-03 0.000000000000D+00 -.576499126830D-04 0.214637904890D-02 0.000000000000D+00  6 2 1 -13 13 2 1 4 0.46439635D-01 0.43064550D-02 0.28722137D+04 0.21275652D+03 0.28722291D+04 0.14343675D+01  1  2  5  6  6  2       21 -.406091899149D+01
-.345295824543D-03 0.000000000000D+00 -.576499126830D-04 0.214637904890D-02 0.000000000000D+00  6 2 3 -13 13 2 3 4 0.46439635D-01 0.43064550D-02 0.28722137D+04 0.21275652D+03 0.28722291D+04 0.14343675D+01  1  2  5  6  6  2       21 -.329080802442D+01
-.345295824543D-03 0.000000000000D+00 -.576499126830D-04 0.214637904890D-02 0.000000000000D+00  6 2 5 -13 13 2 5 4 0.46439635D-01 0.43064550D-02 0.28722137D+04 0.21275652D+03 0.28722291D+04 0.14343675D+01  1  2  5  6  6  2       21 -.155665103426D+01
-.345295824543D-03 0.000000000000D+00 -.576499126830D-04 0.214637904890D-02 0.000000000000D+00  6 2 -2 -13 13 2 -2 4 0.46439635D-01 0.43064550D-02 0.28722137D+04 0.21275652D+03 0.28722291D+04 0.14343675D+01  1  2  5  7  6  2       21 -.364773925317D+01
-.345295885226D-03 0.000000000000D+00 -.576499228144D-04 0.214637881968D-02 0.000000000000D+00  6 2 2 -13 13 2 2 4 0.46439635D-01 0.43064550D-02 0.28722137D+04 0.21275673D+03 0.28722295D+04 0.14343674D+01  1  2  5  8  6  2       21 -.431781619913D+01
-.345295824543D-03 0.000000000000D+00 -.576499126830D-04 0.214637904890D-02 0.000000000000D+00  6 2 -4 -13 13 2 -4 4 0.46439635D-01 0.43064550D-02 0.28722137D+04 0.21275652D+03 0.28722291D+04 0.14343675D+01  1  2  5  9  6  2       21 -.237847641403D+01
-.345295824543D-03 0.000000000000D+00 -.576499126830D-04 0.214637904890D-02 0.000000000000D+00  6 2 4 -13 13 2 4 4 0.46439635D-01 0.43064550D-02 0.28722137D+04 0.21275652D+03 0.28722291D+04 0.14343675D+01  1  2  5 10  6  2       21 -.237720327963D+01
  </mgrwgt>
  </event>
  <event npLO=' -1 ' npNLO=' 1 '>
  7     66 0.13243562E+02 0.22007344E+02 0.75467711E-02 0.14460469E+00
        2 -1    0    0  502    0 0.00000000E+00 0.00000000E+00 0.17100858E+04 0.17100858E+04 0.00000000E+00 0.0000E+00 0.9000E+01
        1 -1    0    0  501    0 0.00000000E+00 0.00000000E+00 -.23589222E+02 0.23589222E+02 0.00000000E+00 0.0000E+00 0.9000E+01
       23  2    1    2    0    0 -.28021738E+02 -.79312327E+00 0.16235151E+04 0.16263316E+04 0.91473198E+02 0.0000E+00 0.0000E+00
      -13  1    3    3    0    0 -.54067152E+02 0.17194152E+02 0.13087028E+04 0.13099320E+04 0.00000000E+00 0.0000E+00 0.9000E+01
       13  1    3    3    0    0 0.26045414E+02 -.17987275E+02 0.31481230E+03 0.31639957E+03 0.00000000E+00 0.0000E+00 0.9000E+01
        2  1    1    2  501    0 0.17796001E+02 0.36431187E+02 0.56752137E+02 0.69747646E+02 0.00000000E+00 0.0000E+00 0.9000E+01
        1  1    1    2  502    0 0.10225737E+02 -.35638064E+02 0.62293353E+01 0.37595770E+02 0.00000000E+00 0.0000E+00 0.9000E+01
#aMCatNLO 2  0  0  2  1 0.12913305D+02 0.00000000D+00  -5  6  0 0.00000000D+00 0.00000000D+00 0.00000000D+00 0.00000000D+00 0.00000000D+00
  <mgrwgt>
 0.2207072336D+02    1    2    0
 0.114030898046298D+03 0.000000000000000D+00 0.000000000000000D+00 0.114030898046298D+03
 0.114030898046298D+03 0.000000000000000D+00 0.000000000000000D+00 -.114030898046298D+03
 0.947657325628648D+02 -.497607854358902D+02 0.218588723936863D+01 0.806202840354490D+02
 0.376096363323260D+02 0.276224218802451D+02 -.234833583454800D+02 0.100009217243886D+02
 0.956864271974055D+02 0.221383635556450D+02 0.212974711061114D+02 -.906212057598376D+02
 0.000000000000000D+00 0.000000000000000D+00 -.000000000000000D+00 -.000000000000000D+00
 0.117027497570300D+03 0.000000000000000D+00 0.000000000000000D+00 0.117027497570300D+03
 0.344701831738964D+03 0.000000000000000D+00 0.000000000000000D+00 -.344701831738964D+03
 0.985825846212533D+02 -.540671519825645D+02 0.171941521787018D+02 0.806202840354490D+02
 0.331952424240968D+02 0.260454143031498D+02 -.179872754477849D+02 0.100009217243886D+02
 0.992780539633533D+02 0.177960008617877D+02 0.364311874457985D+02 -.906212057598376D+02
 0.230673448300561D+03 0.102257368176270D+02 -.356380641767155D+02 -.227674334168664D+03
0.163502774909D-01 0.000000000000D+00 0.000000000000D+00 0.501190119377D-02 0.199574057241D-03  6 2 1 -13 13 2 1 4 0.26309012D+00 0.36291111D-02 0.68898055D+04 0.73745068D+03 0.43887418D+04 0.13480193D+01  1  2  1  6  6  2       21 0.220707233638D+02
  </mgrwgt>
  </event>
  <event npLO=' -1 ' npNLO=' 1 '>
  6     66 0.13243562E+02 0.49793651E+02 0.75467711E-02 0.13151540E+00
        4 -1    0    0  502    0 0.00000000E+00 0.00000000E+00 0.16417800E+03 0.16417800E+03 0.00000000E+00 0.0000E+00 0.9000E+01
       21 -1    0    0  501  502 0.00000000E+00 0.00000000E+00 -.66082630E+02 0.66082630E+02 0.00000000E+00 0.0000E+00 0.9000E+01
       23  2    1    2    0    0 -.45653720E+02 -.19878267E+02 0.13398024E+03 0.16888366E+03 0.89953202E+02 0.0000E+00 0.0000E+00
      -11  1    3    3    0    0 0.19527581E+02 0.35894994E+01 0.75982992E+02 0.78534235E+02 0.00000000E+00 0.0000E+00 0.9000E+01
       11  1    3    3    0    0 -.65181301E+02 -.23467767E+02 0.57997252E+02 0.90349429E+02 0.00000000E+00 0.0000E+00 0.9000E+01
        4  1    1    2  501    0 0.45653720E+02 0.19878267E+02 -.35884875E+02 0.61376966E+02 0.00000000E+00 0.0000E+00 0.9000E+01
#aMCatNLO 1  0  0  2  1 0.25597526D+02 0.00000000D+00  -5  6  0 0.00000000D+00 0.00000000D+00 0.00000000D+00 0.00000000D+00 0.00000000D+00
  <mgrwgt>
 0.3135650920D+02   38    2    0
 0.104160040633213D+03 0.000000000000000D+00 0.000000000000000D+00 0.104160040633213D+03
 0.104160040633213D+03 0.000000000000000D+00 0.000000000000000D+00 -.104160040633213D+03
 0.510261069053826D+02 0.195275810525656D+02 0.358949941093986D+01 0.470048152653946D+02
 0.725549574588481D+02 -.651813014242247D+02 -.234677666755043D+02 0.215611623936120D+02
 0.847390169021949D+02 0.456537203716590D+02 0.198782672645644D+02 -.685659776590066D+02
 0.000000000000000D+00 -.000000000000000D+00 -.000000000000000D+00 -.000000000000000D+00
 0.112220412581768D+03 0.000000000000000D+00 0.000000000000000D+00 0.112220412581768D+03
 0.118332371965191D+03 0.000000000000000D+00 0.000000000000000D+00 -.118332371965191D+03
 0.519765976748709D+02 0.204844243937610D+02 0.851483440695159D+01 0.470048152653946D+02
 0.694365320769634D+02 -.638622718723075D+02 -.166780842550619D+02 0.215611623936120D+02
 0.878979112389632D+02 0.472574306413014D+02 0.281333388885829D+02 -.685659776590066D+02
 0.212417435561617D+02 -.387958316275493D+01 -.199700890404726D+02 -.611195938342218D+01
0.948515739115D-03 0.000000000000D+00 0.000000000000D+00 0.663944075817D-03 0.000000000000D+00  6 4 21 -11 11 4 21 2 0.25258154D-01 0.10166559D-01 0.48250842D+04 0.24794077D+04 0.58223731D+04 0.12776772D+01  1  2  2  2  6  2       21 0.759575909715D+01
-.296617690114D-04 0.460501866663D-04 0.208958406016D-05 0.663944075817D-03 0.000000000000D+00  6 4 21 -11 11 4 21 4 0.25258154D-01 0.10166559D-01 0.48250842D+04 0.24794077D+04 0.58223731D+04 0.12776772D+01  1  2  3  2  6  2       21 -.783450612764D+00
0.872836949875D-04 0.000000000000D+00 0.000000000000D+00 0.663944075817D-03 0.000000000000D+00  6 4 21 -11 11 4 21 4 0.25258154D-01 0.10166559D-01 0.48250842D+04 0.24794077D+04 0.58223731D+04 0.12776772D+01  1  2 15  2  6  2       21 0.114104306685D+01
0.905787581138D-03 0.000000000000D+00 0.000000000000D+00 0.672164705782D-03 0.000000000000D+00  6 4 21 -11 11 4 21 4 0.25258154D-01 0.12443631D-01 0.66854303D+04 0.21419569D+04 0.54348020D+04 0.12855626D+01  1  2 12  2  6  2       21 0.860987116339D+01
0.905787581138D-03 0.000000000000D+00 0.000000000000D+00 0.672164705782D-03 0.000000000000D+00  6 4 21 -11 11 4 21 4 0.25258154D-01 0.12443631D-01 0.66854303D+04 0.21419569D+04 0.54348020D+04 0.12855626D+01  1  2 12  2  6  2       21 0.860987116339D+01
-.631768594290D-03 0.000000000000D+00 0.000000000000D+00 0.663944075817D-03 0.000000000000D+00  6 4 21 -11 11 4 21 4 0.25258154D-01 0.10166559D-01 0.48250842D+04 0.24794077D+04 0.58223731D+04 0.12776772D+01  1  2  4  2  6  2       21 -.825899011802D+01
-.410324469819D-02 0.000000000000D+00 -.133334411496D-02 0.663944075817D-03 0.000000000000D+00  6 4 21 -11 11 4 21 4 0.25258154D-01 0.12416383D-01 0.48250842D+04 0.24794077D+04 0.58223731D+04 0.12776772D+01  1  2  5  2  6  2       21 -.407297889729D+02
0.403056409725D-02 0.000000000000D+00 0.123251810402D-02 0.663944075817D-03 0.000000000000D+00  6 4 21 -11 11 4 21 4 0.25258154D-01 0.10166559D-01 0.48250842D+04 0.24794077D+04 0.58223731D+04 0.12776772D+01  1  2  6  2  6  2       21 0.557180016087D+02
0.526265338058D-04 0.000000000000D+00 0.000000000000D+00 0.672164705782D-03 0.000000000000D+00  6 4 -1 -11 11 4 -1 4 0.25258154D-01 0.12443631D-01 0.66854303D+04 0.21419569D+04 0.54348020D+04 0.12855626D+01  1  2 12  5  6  2       21 0.372879515529D-01
0.526265338058D-04 0.000000000000D+00 0.000000000000D+00 0.672164705782D-03 0.000000000000D+00  6 4 -3 -11 11 4 -3 4 0.25258154D-01 0.12443631D-01 0.66854303D+04 0.21419569D+04 0.54348020D+04 0.12855626D+01  1  2 12  5  6  2       21 0.304629803078D-01
0.526265338058D-04 0.000000000000D+00 0.000000000000D+00 0.672164705782D-03 0.000000000000D+00  6 4 -5 -11 11 4 -5 4 0.25258154D-01 0.12443631D-01 0.66854303D+04 0.21419569D+04 0.54348020D+04 0.12855626D+01  1  2 12  5  6  2       21 0.133429412453D-01
0.526265338058D-04 0.000000000000D+00 0.000000000000D+00 0.672164705782D-03 0.000000000000D+00  6 4 -1 -11 11 4 -1 4 0.25258154D-01 0.12443631D-01 0.66854303D+04 0.21419569D+04 0.54348020D+04 0.12855626D+01  1  2 12  5  6  2       21 0.372879515529D-01
0.526265338058D-04 0.000000000000D+00 0.000000000000D+00 0.672164705782D-03 0.000000000000D+00  6 4 -3 -11 11 4 -3 4 0.25258154D-01 0.12443631D-01 0.66854303D+04 0.21419569D+04 0.54348020D+04 0.12855626D+01  1  2 12  5  6  2       21 0.304629803078D-01
0.526265338058D-04 0.000000000000D+00 0.000000000000D+00 0.672164705782D-03 0.000000000000D+00  6 4 -5 -11 11 4 -5 4 0.25258154D-01 0.12443631D-01 0.66854303D+04 0.21419569D+04 0.54348020D+04 0.12855626D+01  1  2 12  5  6  2       21 0.133429412453D-01
-.189337525728D-03 0.000000000000D+00 -.764551156841D-04 0.663944075817D-03 0.000000000000D+00  6 4 -1 -11 11 4 -1 4 0.25258154D-01 0.12416383D-01 0.48250842D+04 0.24794077D+04 0.58223731D+04 0.12776772D+01  1  2  5  5  6  2       21 -.142098046844D+00
-.189337525728D-03 0.000000000000D+00 -.764551156841D-04 0.663944075817D-03 0.000000000000D+00  6 4 -3 -11 11 4 -3 4 0.25258154D-01 0.12416383D-01 0.48250842D+04 0.24794077D+04 0.58223731D+04 0.12776772D+01  1  2  5  5  6  2       21 -.116177532493D+00
-.189337525728D-03 0.000000000000D+00 -.764551156841D-04 0.663944075817D-03 0.000000000000D+00  6 4 -5 -11 11 4 -5 4 0.25258154D-01 0.12416383D-01 0.48250842D+04 0.24794077D+04 0.58223731D+04 0.12776772D+01  1  2  5  5  6  2       21 -.511852886593D-01
0.526265338058D-04 0.000000000000D+00 0.000000000000D+00 0.672164705782D-03 0.000000000000D+00  6 4 1 -11 11 4 1 4 0.25258154D-01 0.12443631D-01 0.66854303D+04 0.21419569D+04 0.54348020D+04 0.12855626D+01  1  2 12  6  6  2       21 0.465461735070D-01
0.526265338058D-04 0.000000000000D+00 0.000000000000D+00 0.672164705782D-03 0.000000000000D+00  6 4 3 -11 11 4 3 4 0.25258154D-01 0.12443631D-01 0.66854303D+04 0.21419569D+04 0.54348020D+04 0.12855626D+01  1  2 12  6  6  2       21 0.304894870862D-01
0.526265338058D-04 0.000000000000D+00 0.000000000000D+00 0.672164705782D-03 0.000000000000D+00  6 4 5 -11 11 4 5 4 0.25258154D-01 0.12443631D-01 0.66854303D+04 0.21419569D+04 0.54348020D+04 0.12855626D+01  1  2 12  6  6  2       21 0.133284656202D-01
0.526265338058D-04 0.000000000000D+00 0.000000000000D+00 0.672164705782D-03 0.000000000000D+00  6 4 1 -11 11 4 1 4 0.25258154D-01 0.12443631D-01 0.66854303D+04 0.21419569D+04 0.54348020D+04 0.12855626D+01  1  2 12  6  6  2       21 0.465461735070D-01
0.526265338058D-04 0.000000000000D+00 0.000000000000D+00 0.672164705782D-03 0.000000000000D+00  6 4 3 -11 11 4 3 4 0.25258154D-01 0.12443631D-01 0.66854303D+04 0.21419569D+04 0.54348020D+04 0.12855626D+01  1  2 12  6  6  2       21 0.304894870862D-01
0.526265338058D-04 0.000000000000D+00 0.000000000000D+00 0.672164705782D-03 0.000000000000D+00  6 4 5 -11 11 4 5 4 0.25258154D-01 0.12443631D-01 0.66854303D+04 0.21419569D+04 0.54348020D+04 0.12855626D+01  1  2 12  6  6  2       21 0.133284656202D-01
-.189337525728D-03 0.000000000000D+00 -.764551156841D-04 0.663944075817D-03 0.000000000000D+00  6 4 1 -11 11 4 1 4 0.25258154D-01 0.12416383D-01 0.48250842D+04 0.24794077D+04 0.58223731D+04 0.12776772D+01  1  2  5  6  6  2       21 -.177292867732D+00
-.189337525728D-03 0.000000000000D+00 -.764551156841D-04 0.663944075817D-03 0.000000000000D+00  6 4 3 -11 11 4 3 4 0.25258154D-01 0.12416383D-01 0.48250842D+04 0.24794077D+04 0.58223731D+04 0.12776772D+01  1  2  5  6  6  2       21 -.116279653944D+00
-.189337525728D-03 0.000000000000D+00 -.764551156841D-04 0.663944075817D-03 0.000000000000D+00  6 4 5 -11 11 4 5 4 0.25258154D-01 0.12416383D-01 0.48250842D+04 0.24794077D+04 0.58223731D+04 0.12776772D+01  1  2  5  6  6  2       21 -.511300416511D-01
0.526265338058D-04 0.000000000000D+00 0.000000000000D+00 0.672164705782D-03 0.000000000000D+00  6 4 -4 -11 11 4 -4 4 0.25258154D-01 0.12443631D-01 0.66854303D+04 0.21419569D+04 0.54348020D+04 0.12855626D+01  1  2 12  7  6  2       21 0.202626009658D-01
0.526265338058D-04 0.000000000000D+00 0.000000000000D+00 0.672164705782D-03 0.000000000000D+00  6 4 -4 -11 11 4 -4 4 0.25258154D-01 0.12443631D-01 0.66854303D+04 0.21419569D+04 0.54348020D+04 0.12855626D+01  1  2 12  7  6  2       21 0.202626009658D-01
-.189337525728D-03 0.000000000000D+00 -.764551156841D-04 0.663944075817D-03 0.000000000000D+00  6 4 -4 -11 11 4 -4 4 0.25258154D-01 0.12416383D-01 0.48250842D+04 0.24794077D+04 0.58223731D+04 0.12776772D+01  1  2  5  7  6  2       21 -.774557196235D-01
0.526265338058D-04 0.000000000000D+00 0.000000000000D+00 0.672164705782D-03 0.000000000000D+00  6 4 4 -11 11 4 4 4 0.25258154D-01 0.12443631D-01 0.66854303D+04 0.21419569D+04 0.54348020D+04 0.12855626D+01  1  2 12  8  6  2       21 0.202204807251D-01
0.526265338058D-04 0.000000000000D+00 0.000000000000D+00 0.672164705782D-03 0.000000000000D+00  6 4 4 -11 11 4 4 4 0.25258154D-01 0.12443631D-01 0.66854303D+04 0.21419569D+04 0.54348020D+04 0.12855626D+01  1  2 12  8  6  2       21 0.202204807251D-01
-.189337525728D-03 0.000000000000D+00 -.764551156841D-04 0.663944020341D-03 0.000000000000D+00  6 4 4 -11 11 4 4 4 0.25258154D-01 0.12416383D-01 0.48250842D+04 0.24794102D+04 0.58223750D+04 0.12776771D+01  1  2  5  8  6  2       21 -.772955133936D-01
0.526265338058D-04 0.000000000000D+00 0.000000000000D+00 0.672164705782D-03 0.000000000000D+00  6 4 -2 -11 11 4 -2 4 0.25258154D-01 0.12443631D-01 0.66854303D+04 0.21419569D+04 0.54348020D+04 0.12855626D+01  1  2 12  9  6  2       21 0.355362093787D-01
0.526265338058D-04 0.000000000000D+00 0.000000000000D+00 0.672164705782D-03 0.000000000000D+00  6 4 -2 -11 11 4 -2 4 0.25258154D-01 0.12443631D-01 0.66854303D+04 0.21419569D+04 0.54348020D+04 0.12855626D+01  1  2 12  9  6  2       21 0.355362093787D-01
-.189337525728D-03 0.000000000000D+00 -.764551156841D-04 0.663944075817D-03 0.000000000000D+00  6 4 -2 -11 11 4 -2 4 0.25258154D-01 0.12416383D-01 0.48250842D+04 0.24794077D+04 0.58223731D+04 0.12776772D+01  1  2  5  9  6  2       21 -.135443259129D+00
0.526265338058D-04 0.000000000000D+00 0.000000000000D+00 0.672164705782D-03 0.000000000000D+00  6 4 2 -11 11 4 2 4 0.25258154D-01 0.12443631D-01 0.66854303D+04 0.21419569D+04 0.54348020D+04 0.12855626D+01  1  2 12 10  6  2       21 0.533151039687D-01
0.526265338058D-04 0.000000000000D+00 0.000000000000D+00 0.672164705782D-03 0.000000000000D+00  6 4 2 -11 11 4 2 4 0.25258154D-01 0.12443631D-01 0.66854303D+04 0.21419569D+04 0.54348020D+04 0.12855626D+01  1  2 12 10  6  2       21 0.533151039687D-01
-.189337525728D-03 0.000000000000D+00 -.764551156841D-04 0.663944075817D-03 0.000000000000D+00  6 4 2 -11 11 4 2 4 0.25258154D-01 0.12416383D-01 0.48250842D+04 0.24794077D+04 0.58223731D+04 0.12776772D+01  1  2  5 10  6  2       21 -.203034061079D+00
  </mgrwgt>
  </event>
  <event npLO=' -1 ' npNLO=' 1 '>
  6     66 0.13243562E+02 0.10478367E+03 0.75467711E-02 0.10514057E+00
        2 -1    0    0  502    0 0.00000000E+00 0.00000000E+00 0.16234989E+04 0.16234989E+04 0.00000000E+00 0.0000E+00 0.9000E+01
       21 -1    0    0  501  502 0.00000000E+00 0.00000000E+00 -.14812777E+02 0.14812777E+02 0.00000000E+00 0.0000E+00 0.9000E+01
       23  2    1    2    0    0 0.10455534E+03 -.69135573E+01 0.13783637E+04 0.13852740E+04 0.90100616E+02 0.0000E+00 0.0000E+00
      -13  1    3    3    0    0 0.97961711E+02 0.27745494E+02 0.10947564E+04 0.10994807E+04 0.00000000E+00 0.0000E+00 0.9000E+01
       13  1    3    3    0    0 0.65936313E+01 -.34659051E+02 0.28360729E+03 0.28579332E+03 0.00000000E+00 0.0000E+00 0.9000E+01
        2  1    1    2  501    0 -.10455534E+03 0.69135573E+01 0.23032245E+03 0.25303764E+03 0.00000000E+00 0.0000E+00 0.9000E+01
#aMCatNLO 1  0  0  2  5 0.89054820D+01 0.00000000D+00  -5  6  0 0.00000000D+00 0.00000000D+00 0.00000000D+00 0.00000000D+00 0.00000000D+00
  <mgrwgt>
 0.1313232357D+03   14    2    0
 0.155075874596190D+03 0.000000000000000D+00 0.000000000000000D+00 0.155075874596190D+03
 0.155075874596190D+03 0.000000000000000D+00 0.000000000000000D+00 -.155075874596190D+03
 0.129525936471963D+03 0.979617109536939D+02 0.277454936440831D+02 0.800665909628355D+02
 0.386372753336421D+02 0.659363133608602D+01 -.346590509741273D+02 0.157516112377210D+02
 0.141988537386775D+03 -.104555342289780D+03 0.691355733004415D+01 -.958182022005565D+02
 0.000000000000000D+00 0.000000000000000D+00 -.000000000000000D+00 -.000000000000000D+00
 0.274681139972576D+03 0.000000000000000D+00 0.000000000000000D+00 0.274681139972576D+03
 0.441063678810169D+03 0.000000000000000D+00 0.000000000000000D+00 -.441063678810169D+03
 0.130759272196884D+03 0.336003835317101D+02 0.977667760722975D+02 0.800665909628355D+02
 0.252598023904077D+02 -.920634731709103D+01 -.174696173196564D+02 0.157516112377210D+02
 0.249713239968023D+03 -.201412349543617D+03 0.112288199708163D+03 -.958182022005565D+02
 0.310012504227431D+03 0.177018313328998D+03 -.192585358460804D+03 -.166382538837593D+03
0.371285414799D-02 0.000000000000D+00 0.000000000000D+00 0.482408196059D-03 0.000000000000D+00  6 2 21 -13 13 2 21 2 0.24976906D+00 0.22788887D-02 0.14626413D+05 0.10979617D+05 0.14759605D+05 0.12051473D+01  1  2  2  2  6  2       21 0.776221338830D+02
-.208266369859D-03 0.180258080629D-03 0.817943290281D-05 0.482408196059D-03 0.000000000000D+00  6 2 21 -13 13 2 21 4 0.24976906D+00 0.22788887D-02 0.14626413D+05 0.10979617D+05 0.14759605D+05 0.12051473D+01  1  2  3  2  6  2       21 -.789122476277D+01
0.346598878902D-03 0.000000000000D+00 0.000000000000D+00 0.482408196059D-03 0.000000000000D+00  6 2 21 -13 13 2 21 4 0.24976906D+00 0.22788887D-02 0.14626413D+05 0.10979617D+05 0.14759605D+05 0.12051473D+01  1  2 15  2  6  2       21 0.105241028210D+02
0.228347626106D-01 0.000000000000D+00 -.257884017714D-01 0.482408196059D-03 0.000000000000D+00  6 2 21 -13 13 2 21 4 0.24976906D+00 0.13085590D-01 0.14626413D+05 0.10979617D+05 0.14759605D+05 0.12051473D+01  1  2  5  2  6  2       21 0.403552569646D+02
0.972910037221D-02 0.000000000000D+00 -.108596861145D-01 0.482408196059D-03 0.000000000000D+00  6 2 -1 -13 13 2 -1 4 0.24976906D+00 0.13085590D-01 0.14626413D+05 0.10979617D+05 0.14759605D+05 0.12051473D+01  1  2  5  5  6  2       21 0.131206590564D+01
0.972910037221D-02 0.000000000000D+00 -.108596861145D-01 0.482408196059D-03 0.000000000000D+00  6 2 -3 -13 13 2 -3 4 0.24976906D+00 0.13085590D-01 0.14626413D+05 0.10979617D+05 0.14759605D+05 0.12051473D+01  1  2  5  5  6  2       21 0.107096011097D+01
0.972910037221D-02 0.000000000000D+00 -.108596861145D-01 0.482408196059D-03 0.000000000000D+00  6 2 -5 -13 13 2 -5 4 0.24976906D+00 0.13085590D-01 0.14626413D+05 0.10979617D+05 0.14759605D+05 0.12051473D+01  1  2  5  5  6  2       21 0.500684589806D+00
0.972910037221D-02 0.000000000000D+00 -.108596861145D-01 0.482408196059D-03 0.000000000000D+00  6 2 1 -13 13 2 1 4 0.24976906D+00 0.13085590D-01 0.14626413D+05 0.10979617D+05 0.14759605D+05 0.12051473D+01  1  2  5  6  6  2       21 0.165174832655D+01
0.972910037221D-02 0.000000000000D+00 -.108596861145D-01 0.482408196059D-03 0.000000000000D+00  6 2 3 -13 13 2 3 4 0.24976906D+00 0.13085590D-01 0.14626413D+05 0.10979617D+05 0.14759605D+05 0.12051473D+01  1  2  5  6  6  2       21 0.107216643726D+01
0.972910037221D-02 0.000000000000D+00 -.108596861145D-01 0.482408196059D-03 0.000000000000D+00  6 2 5 -13 13 2 5 4 0.24976906D+00 0.13085590D-01 0.14626413D+05 0.10979617D+05 0.14759605D+05 0.12051473D+01  1  2  5  6  6  2       21 0.500134005162D+00
0.972910037221D-02 0.000000000000D+00 -.108596861145D-01 0.482408196059D-03 0.000000000000D+00  6 2 -2 -13 13 2 -2 4 0.24976906D+00 0.13085590D-01 0.14626413D+05 0.10979617D+05 0.14759605D+05 0.12051473D+01  1  2  5  7  6  2       21 0.124763600282D+01
0.972910037221D-02 0.000000000000D+00 -.108596861145D-01 0.482408160394D-03 0.000000000000D+00  6 2 2 -13 13 2 2 4 0.24976906D+00 0.13085590D-01 0.14626413D+05 0.10979628D+05 0.14759612D+05 0.12051472D+01  1  2  5  8  6  2       21 0.190223018761D+01
0.972910037221D-02 0.000000000000D+00 -.108596861145D-01 0.482408196059D-03 0.000000000000D+00  6 2 -4 -13 13 2 -4 4 0.24976906D+00 0.13085590D-01 0.14626413D+05 0.10979617D+05 0.14759605D+05 0.12051473D+01  1  2  5  9  6  2       21 0.728438038172D+00
0.972910037221D-02 0.000000000000D+00 -.108596861145D-01 0.482408196059D-03 0.000000000000D+00  6 2 4 -13 13 2 4 4 0.24976906D+00 0.13085590D-01 0.14626413D+05 0.10979617D+05 0.14759605D+05 0.12051473D+01  1  2  5 10  6  2       21 0.726903152333D+00
  </mgrwgt>
  </event>
  <event npLO=' -1 ' npNLO=' 1 '>
  6     66 0.13243562E+02 0.27753818E+02 0.75467711E-02 0.14413994E+00
        4 -1    0    0  502    0 0.00000000E+00 0.00000000E+00 0.53531467E+03 0.53531467E+03 0.00000000E+00 0.0000E+00 0.9000E+01
       21 -1    0    0  501  502 0.00000000E+00 0.00000000E+00 -.69512722E+01 0.69512722E+01 0.00000000E+00 0.0000E+00 0.9000E+01
       23  2    1    2    0    0 0.26865410E+02 -.69659315E+01 0.42860081E+03 0.43871475E+03 0.89452264E+02 0.0000E+00 0.0000E+00
      -11  1    3    3    0    0 -.10393050E+02 0.89773715E+00 0.36081293E+03 0.36096370E+03 0.00000000E+00 0.0000E+00 0.9000E+01
       11  1    3    3    0    0 0.37258459E+02 -.78636687E+01 0.67787880E+02 0.77751057E+02 0.00000000E+00 0.0000E+00 0.9000E+01
        4  1    1    2  501    0 -.26865410E+02 0.69659315E+01 0.99762592E+02 0.10355119E+03 0.00000000E+00 0.0000E+00 0.9000E+01
#aMCatNLO 1  0  0  2  1 0.10195602D+02 0.00000000D+00  -5  6  0 0.00000000D+00 0.00000000D+00 0.00000000D+00 0.00000000D+00 0.00000000D+00
  <mgrwgt>
 0.1343838374D+02   26    2    0
 0.610009670517347D+02 0.000000000000000D+00 0.000000000000000D+00 0.610009670517347D+02
 0.610009670517347D+02 0.000000000000000D+00 0.000000000000000D+00 -.610009670517347D+02
 0.417860140198003D+02 -.103930497567973D+02 0.897737154048435D+00 0.404629404816052D+02
 0.520083165530424D+02 0.372584594120446D+02 -.786366869495650D+01 -.354236489873425D+02
 0.282076035306266D+02 -.268654096552473D+02 0.696593154090806D+01 -.503929149426273D+01
 0.000000000000000D+00 0.000000000000000D+00 0.000000000000000D+00 0.000000000000000D+00
 0.651372863145306D+02 0.000000000000000D+00 0.000000000000000D+00 0.651372863145306D+02
 0.635363741840759D+02 0.000000000000000D+00 0.000000000000000D+00 -.635363741840759D+02
 0.421652958399657D+02 -.118382637417454D+02 -.719814166838181D+00 0.404629404816052D+02
 0.510973780579410D+02 0.354835044765173D+02 -.985028156362429D+01 -.354236489873425D+02
 0.289022656461462D+02 -.278485507372708D+02 0.586555389966743D+01 -.503929149426273D+01
 0.650872095455357D+01 0.420331000249893D+01 0.470454183079504D+01 0.160091213045469D+01
0.207805716444D-03 0.000000000000D+00 0.000000000000D+00 0.296739399039D-03 0.000000000000D+00  6 4 21 -11 11 4 21 2 0.82356104D-01 0.10694265D-02 0.14540810D+04 0.77027444D+03 0.36852596D+04 0.13452816D+01  1  2  2  2  6  2       21 0.442660028852D+01
-.167475342534D-04 0.100889122214D-04 0.457796844887D-06 0.296739399039D-03 0.000000000000D+00  6 4 21 -11 11 4 21 4 0.82356104D-01 0.10694265D-02 0.14540810D+04 0.77027444D+03 0.36852596D+04 0.13452816D+01  1  2  3  2  6  2       21 -.876353117392D+00
0.173047430776D-04 0.000000000000D+00 0.000000000000D+00 0.296739399039D-03 0.000000000000D+00  6 4 21 -11 11 4 21 4 0.82356104D-01 0.10694265D-02 0.14540810D+04 0.77027444D+03 0.36852596D+04 0.13452816D+01  1  2 15  2  6  2       21 0.667120689304D+00
0.200838646826D-03 0.000000000000D+00 0.000000000000D+00 0.296516477643D-03 0.000000000000D+00  6 4 21 -11 11 4 21 4 0.82356104D-01 0.11894045D-02 0.17411347D+04 0.77651541D+03 0.36940988D+04 0.13447762D+01  1  2 12  2  6  2       21 0.662197721091D+01
0.200838646826D-03 0.000000000000D+00 0.000000000000D+00 0.296516477643D-03 0.000000000000D+00  6 4 21 -11 11 4 21 4 0.82356104D-01 0.11894045D-02 0.17411347D+04 0.77651541D+03 0.36940988D+04 0.13447762D+01  1  2 12  2  6  2       21 0.662197721091D+01
-.108589120660D-03 0.000000000000D+00 0.000000000000D+00 0.296739399039D-03 0.000000000000D+00  6 4 21 -11 11 4 21 4 0.82356104D-01 0.10694265D-02 0.14540810D+04 0.77027444D+03 0.36852596D+04 0.13452816D+01  1  2  4  2  6  2       21 -.418625394788D+01
0.550030176451D-05 0.000000000000D+00 0.000000000000D+00 0.296990789002D-03 0.000000000000D+00  6 4 -1 -11 11 4 -1 4 0.82356104D-01 0.11894045D-02 0.17411347D+04 0.76330799D+03 0.36753719D+04 0.13458514D+01  1  2 12  5  6  2       21 0.961604960566D-02
0.550030176451D-05 0.000000000000D+00 0.000000000000D+00 0.296990789002D-03 0.000000000000D+00  6 4 -3 -11 11 4 -3 4 0.82356104D-01 0.11894045D-02 0.17411347D+04 0.76330799D+03 0.36753719D+04 0.13458514D+01  1  2 12  5  6  2       21 0.898645534349D-02
0.550030176451D-05 0.000000000000D+00 0.000000000000D+00 0.296990789002D-03 0.000000000000D+00  6 4 -5 -11 11 4 -5 4 0.82356104D-01 0.11894045D-02 0.17411347D+04 0.76330799D+03 0.36753719D+04 0.13458514D+01  1  2 12  5  6  2       21 0.494817251180D-02
0.550030176451D-05 0.000000000000D+00 0.000000000000D+00 0.296990789002D-03 0.000000000000D+00  6 4 -1 -11 11 4 -1 4 0.82356104D-01 0.11894045D-02 0.17411347D+04 0.76330799D+03 0.36753719D+04 0.13458514D+01  1  2 12  5  6  2       21 0.961604960566D-02
0.550030176451D-05 0.000000000000D+00 0.000000000000D+00 0.296990789002D-03 0.000000000000D+00  6 4 -3 -11 11 4 -3 4 0.82356104D-01 0.11894045D-02 0.17411347D+04 0.76330799D+03 0.36753719D+04 0.13458514D+01  1  2 12  5  6  2       21 0.898645534349D-02
0.550030176451D-05 0.000000000000D+00 0.000000000000D+00 0.296990789002D-03 0.000000000000D+00  6 4 -5 -11 11 4 -5 4 0.82356104D-01 0.11894045D-02 0.17411347D+04 0.76330799D+03 0.36753719D+04 0.13458514D+01  1  2 12  5  6  2       21 0.494817251180D-02
0.550030176451D-05 0.000000000000D+00 0.000000000000D+00 0.296990789002D-03 0.000000000000D+00  6 4 1 -11 11 4 1 4 0.82356104D-01 0.11894045D-02 0.17411347D+04 0.76330799D+03 0.36753719D+04 0.13458514D+01  1  2 12  6  6  2       21 0.997545441017D-02
0.550030176451D-05 0.000000000000D+00 0.000000000000D+00 0.296990789002D-03 0.000000000000D+00  6 4 3 -11 11 4 3 4 0.82356104D-01 0.11894045D-02 0.17411347D+04 0.76330799D+03 0.36753719D+04 0.13458514D+01  1  2 12  6  6  2       21 0.896875605724D-02
0.550030176451D-05 0.000000000000D+00 0.000000000000D+00 0.296990789002D-03 0.000000000000D+00  6 4 5 -11 11 4 5 4 0.82356104D-01 0.11894045D-02 0.17411347D+04 0.76330799D+03 0.36753719D+04 0.13458514D+01  1  2 12  6  6  2       21 0.494840982900D-02
0.550030176451D-05 0.000000000000D+00 0.000000000000D+00 0.296990789002D-03 0.000000000000D+00  6 4 1 -11 11 4 1 4 0.82356104D-01 0.11894045D-02 0.17411347D+04 0.76330799D+03 0.36753719D+04 0.13458514D+01  1  2 12  6  6  2       21 0.997545441017D-02
0.550030176451D-05 0.000000000000D+00 0.000000000000D+00 0.296990789002D-03 0.000000000000D+00  6 4 3 -11 11 4 3 4 0.82356104D-01 0.11894045D-02 0.17411347D+04 0.76330799D+03 0.36753719D+04 0.13458514D+01  1  2 12  6  6  2       21 0.896875605724D-02
0.550030176451D-05 0.000000000000D+00 0.000000000000D+00 0.296990789002D-03 0.000000000000D+00  6 4 5 -11 11 4 5 4 0.82356104D-01 0.11894045D-02 0.17411347D+04 0.76330799D+03 0.36753719D+04 0.13458514D+01  1  2 12  6  6  2       21 0.494840982900D-02
0.550030176451D-05 0.000000000000D+00 0.000000000000D+00 0.296990789002D-03 0.000000000000D+00  6 4 -4 -11 11 4 -4 4 0.82356104D-01 0.11894045D-02 0.17411347D+04 0.76330799D+03 0.36753719D+04 0.13458514D+01  1  2 12  7  6  2       21 0.717062455525D-02
0.550030176451D-05 0.000000000000D+00 0.000000000000D+00 0.296990789002D-03 0.000000000000D+00  6 4 -4 -11 11 4 -4 4 0.82356104D-01 0.11894045D-02 0.17411347D+04 0.76330799D+03 0.36753719D+04 0.13458514D+01  1  2 12  7  6  2       21 0.717062455525D-02
0.550030176451D-05 0.000000000000D+00 0.000000000000D+00 0.296516450039D-03 0.000000000000D+00  6 4 4 -11 11 4 4 4 0.82356104D-01 0.11894045D-02 0.17411347D+04 0.77651618D+03 0.36940997D+04 0.13447762D+01  1  2 12  8  6  2       21 0.715381544216D-02
0.550030176451D-05 0.000000000000D+00 0.000000000000D+00 0.296516450039D-03 0.000000000000D+00  6 4 4 -11 11 4 4 4 0.82356104D-01 0.11894045D-02 0.17411347D+04 0.77651618D+03 0.36940997D+04 0.13447762D+01  1  2 12  8  6  2       21 0.715381544216D-02
0.550030176451D-05 0.000000000000D+00 0.000000000000D+00 0.296990789002D-03 0.000000000000D+00  6 4 -2 -11 11 4 -2 4 0.82356104D-01 0.11894045D-02 0.17411347D+04 0.76330799D+03 0.36753719D+04 0.13458514D+01  1  2 12  9  6  2       21 0.965026044922D-02
0.550030176451D-05 0.000000000000D+00 0.000000000000D+00 0.296990789002D-03 0.000000000000D+00  6 4 -2 -11 11 4 -2 4 0.82356104D-01 0.11894045D-02 0.17411347D+04 0.76330799D+03 0.36753719D+04 0.13458514D+01  1  2 12  9  6  2       21 0.965026044922D-02
0.550030176451D-05 0.000000000000D+00 0.000000000000D+00 0.296990789002D-03 0.000000000000D+00  6 4 2 -11 11 4 2 4 0.82356104D-01 0.11894045D-02 0.17411347D+04 0.76330799D+03 0.36753719D+04 0.13458514D+01  1  2 12 10  6  2       21 0.102397059183D-01
0.550030176451D-05 0.000000000000D+00 0.000000000000D+00 0.296990789002D-03 0.000000000000D+00  6 4 2 -11 11 4 2 4 0.82356104D-01 0.11894045D-02 0.17411347D+04 0.76330799D+03 0.36753719D+04 0.13458514D+01  1  2 12 10  6  2       21 0.102397059183D-01
  </mgrwgt>
  </event>
  <event npLO=' -1 ' npNLO=' 1 '>
  6     66 0.13243562E+02 0.10758767E+02 0.75467711E-02 0.17592177E+00
        2 -1    0    0  502    0 0.00000000E+00 0.00000000E+00 0.41713472E+03 0.41713472E+03 0.00000000E+00 0.0000E+00 0.9000E+01
       21 -1    0    0  501  502 0.00000000E+00 0.00000000E+00 -.69720910E+01 0.69720910E+01 0.00000000E+00 0.0000E+00 0.9000E+01
       23  2    1    2    0    0 0.39663136E+00 0.10751453E+02 0.39390765E+03 0.40461386E+03 0.91833445E+02 0.0000E+00 0.0000E+00
      -11  1    3    3    0    0 0.15463497E+02 0.45004656E+02 0.29596135E+03 0.29976268E+03 0.00000000E+00 0.0000E+00 0.9000E+01
       11  1    3    3    0    0 -.15066866E+02 -.34253202E+02 0.97946300E+02 0.10485118E+03 0.00000000E+00 0.0000E+00 0.9000E+01
        2  1    1    2  501    0 -.39663136E+00 -.10751453E+02 0.16254973E+02 0.19492953E+02 0.00000000E+00 0.0000E+00 0.9000E+01
#aMCatNLO 1  0  0  2  1 0.86059085D+01 0.00000000D+00  -5  6  0 0.00000000D+00 0.00000000D+00 0.00000000D+00 0.00000000D+00 0.00000000D+00
  <mgrwgt>
 0.7159274755D+03   37    2    0
 0.539286677036102D+02 0.000000000000000D+00 0.000000000000000D+00 0.539286677036102D+02
 0.539286677036102D+02 0.000000000000000D+00 0.000000000000000D+00 -.539286677036102D+02
 0.532101541723459D+02 0.154634970196045D+02 0.450046555892870D+02 0.238071783766823D+02
 0.398135902269496D+02 -.150668656578999D+02 -.342532023717882D+02 -.135952069967167D+02
 0.148335910079249D+02 -.396631361704590D+00 -.107514532174988D+02 -.102119713799656D+02
 0.000000000000000D+00 -.000000000000000D+00 0.000000000000000D+00 0.000000000000000D+00
 0.575587485463899D+02 0.000000000000000D+00 0.000000000000000D+00 0.575587485463899D+02
 0.557095540364536D+02 0.000000000000000D+00 0.000000000000000D+00 -.557095540364536D+02
 0.528736909161644D+02 0.175911684907153D+02 0.438109146214751D+02 0.238071783766823D+02
 0.400223264669332D+02 -.134656359685176D+02 -.351515804837503D+02 -.135952069967167D+02
 0.150754675472039D+02 0.203239905804957D+00 -.110880140621415D+02 -.102119713799656D+02
 0.529681765254191D+01 -.432877242800269D+01 0.242867992441670D+01 0.184919450993628D+01
0.334113618910D-03 0.000000000000D+00 0.000000000000D+00 0.216311910212D-02 0.000000000000D+00  6 2 21 -11 11 2 21 2 0.64174572D-01 0.10726294D-02 0.22928016D+04 0.11575106D+03 0.26636069D+04 0.14835007D+01  1  2  2  2  6  2       21 0.170520904119D+03
0.444238291186D-04 0.162211272666D-04 0.736053671613D-06 0.216311910212D-02 0.000000000000D+00  6 2 21 -11 11 2 21 4 0.64174572D-01 0.10726294D-02 0.22928016D+04 0.11575106D+03 0.26636069D+04 0.14835007D+01  1  2  3  2  6  2       21 -.438447883195D+01
0.293020084639D-04 0.000000000000D+00 0.000000000000D+00 0.216311910212D-02 0.000000000000D+00  6 2 21 -11 11 2 21 4 0.64174572D-01 0.10726294D-02 0.22928016D+04 0.11575106D+03 0.26636069D+04 0.14835007D+01  1  2 15  2  6  2       21 0.329121576888D+02
0.321455071338D-03 0.000000000000D+00 0.000000000000D+00 0.215312184566D-02 0.000000000000D+00  6 2 21 -11 11 2 21 4 0.64174572D-01 0.11826366D-02 0.25455334D+04 0.12053008D+03 0.26763022D+04 0.14800686D+01  1  2 12  2  6  2       21 0.310657948392D+03
0.321455071338D-03 0.000000000000D+00 0.000000000000D+00 0.215312184566D-02 0.000000000000D+00  6 2 21 -11 11 2 21 4 0.64174572D-01 0.11826366D-02 0.25455334D+04 0.12053008D+03 0.26763022D+04 0.14800686D+01  1  2 12  2  6  2       21 0.310657948392D+03
-.993327778080D-04 0.000000000000D+00 0.000000000000D+00 0.216311910212D-02 0.000000000000D+00  6 2 21 -11 11 2 21 4 0.64174572D-01 0.10726294D-02 0.22928016D+04 0.11575106D+03 0.26636069D+04 0.14835007D+01  1  2  4  2  6  2       21 -.111571056670D+03
0.695562590878D-07 0.000000000000D+00 0.000000000000D+00 0.216311910212D-02 0.106280475240D-02  6 2 21 -11 11 2 21 4 0.68494332D-01 0.11080508D-02 0.25455334D+04 0.12053008D+03 0.26763022D+04 0.14800686D+01  1  2 11  2  6  2       21 0.690134758786D-01
0.803924395001D-05 0.000000000000D+00 0.000000000000D+00 0.217287311758D-02 0.000000000000D+00  6 2 -1 -11 11 2 -1 4 0.64174572D-01 0.11826366D-02 0.25455334D+04 0.11131073D+03 0.26516266D+04 0.14868417D+01  1  2 12  5  6  2       21 0.419086455340D+00
0.803924395001D-05 0.000000000000D+00 0.000000000000D+00 0.217287311758D-02 0.000000000000D+00  6 2 -3 -11 11 2 -3 4 0.64174572D-01 0.11826366D-02 0.25455334D+04 0.11131073D+03 0.26516266D+04 0.14868417D+01  1  2 12  5  6  2       21 0.390878405328D+00
0.803924395001D-05 0.000000000000D+00 0.000000000000D+00 0.217287311758D-02 0.000000000000D+00  6 2 -5 -11 11 2 -5 4 0.64174572D-01 0.11826366D-02 0.25455334D+04 0.11131073D+03 0.26516266D+04 0.14868417D+01  1  2 12  5  6  2       21 0.209013359087D+00
0.803924395001D-05 0.000000000000D+00 0.000000000000D+00 0.217287311758D-02 0.000000000000D+00  6 2 -1 -11 11 2 -1 4 0.64174572D-01 0.11826366D-02 0.25455334D+04 0.11131073D+03 0.26516266D+04 0.14868417D+01  1  2 12  5  6  2       21 0.419086455340D+00
0.803924395001D-05 0.000000000000D+00 0.000000000000D+00 0.217287311758D-02 0.000000000000D+00  6 2 -3 -11 11 2 -3 4 0.64174572D-01 0.11826366D-02 0.25455334D+04 0.11131073D+03 0.26516266D+04 0.14868417D+01  1  2 12  5  6  2       21 0.390878405328D+00
0.803924395001D-05 0.000000000000D+00 0.000000000000D+00 0.217287311758D-02 0.000000000000D+00  6 2 -5 -11 11 2 -5 4 0.64174572D-01 0.11826366D-02 0.25455334D+04 0.11131073D+03 0.26516266D+04 0.14868417D+01  1  2 12  5  6  2       21 0.209013359087D+00
0.322575337437D-08 0.000000000000D+00 0.000000000000D+00 0.217287311758D-02 0.521909976155D-05  6 2 -1 -11 11 2 -1 4 0.68494332D-01 0.11080508D-02 0.25455334D+04 0.11131073D+03 0.26516266D+04 0.14868417D+01  1  2 11  5  6  2       21 0.171609898561D-03
0.322575337437D-08 0.000000000000D+00 0.000000000000D+00 0.217287311758D-02 0.521909976155D-05  6 2 -3 -11 11 2 -3 4 0.68494332D-01 0.11080508D-02 0.25455334D+04 0.11131073D+03 0.26516266D+04 0.14868417D+01  1  2 11  5  6  2       21 0.160253821133D-03
0.322575337437D-08 0.000000000000D+00 0.000000000000D+00 0.217287311758D-02 0.521909976155D-05  6 2 -5 -11 11 2 -5 4 0.68494332D-01 0.11080508D-02 0.25455334D+04 0.11131073D+03 0.26516266D+04 0.14868417D+01  1  2 11  5  6  2       21 0.861771402550D-04
0.803924395001D-05 0.000000000000D+00 0.000000000000D+00 0.217287311758D-02 0.000000000000D+00  6 2 1 -11 11 2 1 4 0.64174572D-01 0.11826366D-02 0.25455334D+04 0.11131073D+03 0.26516266D+04 0.14868417D+01  1  2 12  6  6  2       21 0.434954006604D+00
0.803924395001D-05 0.000000000000D+00 0.000000000000D+00 0.217287311758D-02 0.000000000000D+00  6 2 3 -11 11 2 3 4 0.64174572D-01 0.11826366D-02 0.25455334D+04 0.11131073D+03 0.26516266D+04 0.14868417D+01  1  2 12  6  6  2       21 0.390077665486D+00
0.803924395001D-05 0.000000000000D+00 0.000000000000D+00 0.217287311758D-02 0.000000000000D+00  6 2 5 -11 11 2 5 4 0.64174572D-01 0.11826366D-02 0.25455334D+04 0.11131073D+03 0.26516266D+04 0.14868417D+01  1  2 12  6  6  2       21 0.209024318331D+00
0.803924395001D-05 0.000000000000D+00 0.000000000000D+00 0.217287311758D-02 0.000000000000D+00  6 2 1 -11 11 2 1 4 0.64174572D-01 0.11826366D-02 0.25455334D+04 0.11131073D+03 0.26516266D+04 0.14868417D+01  1  2 12  6  6  2       21 0.434954006604D+00
0.803924395001D-05 0.000000000000D+00 0.000000000000D+00 0.217287311758D-02 0.000000000000D+00  6 2 3 -11 11 2 3 4 0.64174572D-01 0.11826366D-02 0.25455334D+04 0.11131073D+03 0.26516266D+04 0.14868417D+01  1  2 12  6  6  2       21 0.390077665486D+00
0.803924395001D-05 0.000000000000D+00 0.000000000000D+00 0.217287311758D-02 0.000000000000D+00  6 2 5 -11 11 2 5 4 0.64174572D-01 0.11826366D-02 0.25455334D+04 0.11131073D+03 0.26516266D+04 0.14868417D+01  1  2 12  6  6  2       21 0.209024318331D+00
0.364319320791D-08 0.000000000000D+00 0.000000000000D+00 0.217287311758D-02 0.589449551654D-05  6 2 1 -11 11 2 1 4 0.68494332D-01 0.11080508D-02 0.25455334D+04 0.11131073D+03 0.26516266D+04 0.14868417D+01  1  2 11  6  6  2       21 0.200798138290D-03
0.364319320791D-08 0.000000000000D+00 0.000000000000D+00 0.217287311758D-02 0.589449551654D-05  6 2 3 -11 11 2 3 4 0.68494332D-01 0.11080508D-02 0.25455334D+04 0.11131073D+03 0.26516266D+04 0.14868417D+01  1  2 11  6  6  2       21 0.180623618361D-03
0.364319320791D-08 0.000000000000D+00 0.000000000000D+00 0.217287311758D-02 0.589449551654D-05  6 2 5 -11 11 2 5 4 0.68494332D-01 0.11080508D-02 0.25455334D+04 0.11131073D+03 0.26516266D+04 0.14868417D+01  1  2 11  6  6  2       21 0.973348546189D-04
0.803924395001D-05 0.000000000000D+00 0.000000000000D+00 0.217287311758D-02 0.000000000000D+00  6 2 -2 -11 11 2 -2 4 0.64174572D-01 0.11826366D-02 0.25455334D+04 0.11131073D+03 0.26516266D+04 0.14868417D+01  1  2 12  7  6  2       21 0.420694746889D+00
0.803924395001D-05 0.000000000000D+00 0.000000000000D+00 0.217287311758D-02 0.000000000000D+00  6 2 -2 -11 11 2 -2 4 0.64174572D-01 0.11826366D-02 0.25455334D+04 0.11131073D+03 0.26516266D+04 0.14868417D+01  1  2 12  7  6  2       21 0.420694746889D+00
0.194087846524D-07 0.000000000000D+00 0.000000000000D+00 0.217287311758D-02 0.184695731300D-03  6 2 -2 -11 11 2 -2 4 0.68494332D-01 0.11080508D-02 0.25455334D+04 0.11131073D+03 0.26516266D+04 0.14868417D+01  1  2 11  7  6  2       21 0.103683095972D-02
0.803924587190D-05 0.000000000000D+00 0.000000000000D+00 0.215312159971D-02 0.000000000000D+00  6 2 2 -11 11 2 2 4 0.64174572D-01 0.11826366D-02 0.25455334D+04 0.12053020D+03 0.26763025D+04 0.14800685D+01  1  2 12  8  6  2       21 0.438901056031D+00
0.803924587190D-05 0.000000000000D+00 0.000000000000D+00 0.215312159971D-02 0.000000000000D+00  6 2 2 -11 11 2 2 4 0.64174572D-01 0.11826366D-02 0.25455334D+04 0.12053020D+03 0.26763025D+04 0.14800685D+01  1  2 12  8  6  2       21 0.438901056031D+00
0.488311330195D-08 0.000000000000D+00 0.000000000000D+00 0.215312159971D-02 0.192006102601D-04  6 2 2 -11 11 2 2 4 0.68494332D-01 0.11080508D-02 0.25455334D+04 0.12053020D+03 0.26763025D+04 0.14800685D+01  1  2 11  8  6  2       21 0.271321799531D-03
0.803924395001D-05 0.000000000000D+00 0.000000000000D+00 0.217287311758D-02 0.000000000000D+00  6 2 -4 -11 11 2 -4 4 0.64174572D-01 0.11826366D-02 0.25455334D+04 0.11131073D+03 0.26516266D+04 0.14868417D+01  1  2 12  9  6  2       21 0.309302477030D+00
0.803924395001D-05 0.000000000000D+00 0.000000000000D+00 0.217287311758D-02 0.000000000000D+00  6 2 -4 -11 11 2 -4 4 0.64174572D-01 0.11826366D-02 0.25455334D+04 0.11131073D+03 0.26516266D+04 0.14868417D+01  1  2 12  9  6  2       21 0.309302477030D+00
0.385499589721D-08 0.000000000000D+00 0.000000000000D+00 0.217287311758D-02 0.623718115829D-05  6 2 -4 -11 11 2 -4 4 0.68494332D-01 0.11080508D-02 0.25455334D+04 0.11131073D+03 0.26516266D+04 0.14868417D+01  1  2 11  9  6  2       21 0.152110686518D-03
0.803924395001D-05 0.000000000000D+00 0.000000000000D+00 0.217287311758D-02 0.000000000000D+00  6 2 4 -11 11 2 4 4 0.64174572D-01 0.11826366D-02 0.25455334D+04 0.11131073D+03 0.26516266D+04 0.14868417D+01  1  2 12 10  6  2       21 0.309335831734D+00
0.803924395001D-05 0.000000000000D+00 0.000000000000D+00 0.217287311758D-02 0.000000000000D+00  6 2 4 -11 11 2 4 4 0.64174572D-01 0.11826366D-02 0.25455334D+04 0.11131073D+03 0.26516266D+04 0.14868417D+01  1  2 12 10  6  2       21 0.309335831734D+00
0.367936018699D-08 0.000000000000D+00 0.000000000000D+00 0.217287311758D-02 0.595301179166D-05  6 2 4 -11 11 2 4 4 0.68494332D-01 0.11080508D-02 0.25455334D+04 0.11131073D+03 0.26516266D+04 0.14868417D+01  1  2 11 10  6  2       21 0.145197825724D-03
  </mgrwgt>
  </event>
  <event npLO=' -1 ' npNLO=' 1 '>
  6     66 0.13243562E+02 0.19822124E+02 0.75467711E-02 0.13400867E+00
        2 -1    0    0  502    0 0.00000000E+00 0.00000000E+00 0.62546545E+03 0.62546545E+03 0.00000000E+00 0.0000E+00 0.9000E+01
       21 -1    0    0  501  502 0.00000000E+00 0.00000000E+00 -.55419181E+02 0.55419181E+02 0.00000000E+00 0.0000E+00 0.9000E+01
       23  2    1    2    0    0 0.13875118E+02 0.14156189E+02 0.62005005E+03 0.62709527E+03 0.91616052E+02 0.0000E+00 0.0000E+00
      -13  1    3    3    0    0 -.14047377E+02 0.38923467E+02 0.15115088E+03 0.15671296E+03 0.00000000E+00 0.0000E+00 0.9000E+01
       13  1    3    3    0    0 0.27922495E+02 -.24767278E+02 0.46889917E+03 0.47038231E+03 0.00000000E+00 0.0000E+00 0.9000E+01
        2  1    1    2  501    0 -.13875118E+02 -.14156189E+02 -.50003782E+02 0.53789356E+02 0.00000000E+00 0.0000E+00 0.9000E+01
#aMCatNLO 1  0  0  5  2 0.21465349D+02 0.00000000D+00  -5  6  0 0.00000000D+00 0.00000000D+00 0.00000000D+00 0.00000000D+00 0.00000000D+00
  <mgrwgt>
 0.1287520156D+04    4    2    0
 0.186179437329666D+03 0.000000000000000D+00 0.000000000000000D+00 0.186179437329666D+03
 0.186179437329666D+03 -.000000000000000D+00 -.000000000000000D+00 -.186179437329666D+03
 0.551630588761433D+02 -.140473772981313D+02 0.389234671189158D+02 0.364773623369274D+02
 0.142287092755004D+03 0.279224954581991D+02 -.247672783728105D+02 0.137304526269391D+03
 0.174908723028184D+03 -.138751181600679D+02 -.141561887461053D+02 -.173781888606318D+03
 0.000000000000000D+00 0.000000000000000D+00 0.000000000000000D+00 0.000000000000000D+00
 0.186179437329666D+03 0.000000000000000D+00 0.000000000000000D+00 0.186179437329666D+03
 0.186179437329666D+03 -.000000000000000D+00 -.000000000000000D+00 -.186179437329666D+03
 0.415519251728717D+02 -.161161552287941D+02 0.368127816081772D+02 0.105665101373155D+02
 0.851392320610937D+02 0.230577419119144D+02 -.297305780442098D+02 0.763748787431670D+02
 0.157342604435991D+03 0.557207336958240D+02 0.997034869220310D+01 -.146807653594953D+03
 0.883251129893753D+02 -.626623203789442D+02 -.170525522561705D+02 0.598662647144703D+02
0.760775408084D-01 0.000000000000D+00 0.000000000000D+00 0.566082833937D-01 0.000000000000D+00  6 2 21 -13 13 2 21 2 0.96225453D-01 0.85260279D-02 0.24268873D+04 0.39291658D+03 0.32238558D+04 0.13896631D+01  1  2  2  3  6  5        2 0.952771233283D+03
0.168121174533D-01 0.369354435658D-02 0.167599134157D-03 0.566082833937D-01 0.000000000000D+00  6 2 21 -13 13 2 21 4 0.96225453D-01 0.85260279D-02 0.24268873D+04 0.39291658D+03 0.32238558D+04 0.13896631D+01  1  2  3  3  6  5        2 0.245108819610D+03
0.890244680748D-02 0.000000000000D+00 0.000000000000D+00 0.566082833937D-01 0.000000000000D+00  6 2 21 -13 13 2 21 4 0.96225453D-01 0.85260279D-02 0.24268873D+04 0.39291658D+03 0.32238558D+04 0.13896631D+01  1  2 15  3  6  5        2 0.215308233543D+03
-.519605694850D-02 0.000000000000D+00 0.000000000000D+00 0.566082833937D-01 0.000000000000D+00  6 2 21 -13 13 2 21 4 0.96225453D-01 0.85260279D-02 0.24268873D+04 0.39291658D+03 0.32238558D+04 0.13896631D+01  1  2  4  3  6  5        2 -.125668130028D+03
  </mgrwgt>
  </event>
  <event npLO=' -1 ' npNLO=' 1 '>
  7     66 0.13243562E+02 0.29075678E+02 0.75467711E-02 0.14582112E+00
        2 -1    0    0  502    0 0.00000000E+00 0.00000000E+00 0.46616250E+03 0.46616250E+03 0.00000000E+00 0.0000E+00 0.9000E+01
        2 -1    0    0  501    0 0.00000000E+00 0.00000000E+00 -.59980646E+02 0.59980646E+02 0.00000000E+00 0.0000E+00 0.9000E+01
       23  2    1    2    0    0 0.17330089E+02 0.17964596E+02 0.42044671E+03 0.43094092E+03 0.91167854E+02 0.0000E+00 0.0000E+00
      -11  1    3    3    0    0 -.26146703E+02 0.30786836E+02 0.29094697E+03 0.29373733E+03 0.00000000E+00 0.0000E+00 0.9000E+01
       11  1    3    3    0    0 0.43476792E+02 -.12822240E+02 0.12949975E+03 0.13720359E+03 0.00000000E+00 0.0000E+00 0.9000E+01
        2  1    1    2  501    0 -.41203177E+02 -.80982131E+01 -.40531692E+02 0.58361811E+02 0.00000000E+00 0.0000E+00 0.9000E+01
        2  1    1    2  502    0 0.23873088E+02 -.98663826E+01 0.26266835E+02 0.36840419E+02 0.00000000E+00 0.0000E+00 0.9000E+01
#aMCatNLO 2  0  0  2  2 0.34346721D+02 0.00000000D+00  -5  6  0 0.00000000D+00 0.00000000D+00 0.00000000D+00 0.00000000D+00 0.00000000D+00
  <mgrwgt>
 0.4056765740D+01    1    2    0
 0.153634685903847D+03 0.000000000000000D+00 0.000000000000000D+00 0.153634685903847D+03
 0.153634685903847D+03 0.000000000000000D+00 0.000000000000000D+00 -.153634685903847D+03
 0.105000360896530D+03 -.179007458027890D+02 0.273789076788194D+02 0.997749192052796D+02
 0.621592292534239D+02 0.481427958163086D+02 -.147506282124248D+02 0.364480446623375D+02
 0.140109781657740D+03 -.302420500135196D+02 -.126282794663946D+02 -.136222963867617D+03
 0.000000000000000D+00 0.000000000000000D+00 -.000000000000000D+00 -.000000000000000D+00
 0.165370219332806D+03 0.000000000000000D+00 0.000000000000000D+00 0.165370219332806D+03
 0.169079583330881D+03 0.000000000000000D+00 0.000000000000000D+00 -.169079583330881D+03
 0.107640670089708D+03 -.261467032433200D+02 0.307868358953482D+02 0.997749192052796D+02
 0.581644330617894D+02 0.434767922988394D+02 -.128222402525929D+02 0.364480446623375D+02
 0.142548162912484D+03 -.412031771786003D+02 -.809821308899242D+01 -.136222963867617D+03
 0.260965365997060D+02 0.238730881230809D+02 -.986638255376286D+01 -.370936399807499D+01
0.166220586804D-02 0.000000000000D+00 0.000000000000D+00 0.911204197162D-02 0.125265776504D-03  6 2 2 -11 11 2 2 4 0.71717308D-01 0.92277917D-02 0.58938444D+04 0.67457332D+03 0.36462190D+04 0.13536773D+01  1  2  1  8  6  2       21 0.405676574032D+01
  </mgrwgt>
  </event>
  <event npLO=' -1 ' npNLO=' 1 '>
  7     66 0.13243562E+02 0.79954016E+01 0.75467711E-02 0.16940632E+00
        2 -1    0    0  502    0 0.00000000E+00 0.00000000E+00 0.41131765E+03 0.41131765E+03 0.00000000E+00 0.0000E+00 0.9000E+01
       21 -1    0    0  501  502 0.00000000E+00 0.00000000E+00 -.10610963E+02 0.10610963E+02 0.00000000E+00 0.0000E+00 0.9000E+01
       23  2    1    2    0    0 -.28001141E+01 0.39852042E+01 0.33308854E+03 0.34562700E+03 0.92121252E+02 0.0000E+00 0.0000E+00
      -11  1    3    3    0    0 -.32069586E+02 -.19656304E+02 0.66535881E+02 0.76432010E+02 0.00000000E+00 0.0000E+00 0.9000E+01
       11  1    3    3    0    0 0.29269472E+02 0.23641508E+02 0.26655266E+03 0.26919499E+03 0.00000000E+00 0.0000E+00 0.9000E+01
        2  1    1    2  503    0 0.13497934E+02 -.10656238E+01 0.62744536E+02 0.64188836E+02 0.00000000E+00 0.0000E+00 0.9000E+01
       21  1    1    2  501  503 -.10697820E+02 -.29195804E+01 0.48736108E+01 0.12112778E+02 0.00000000E+00 0.0000E+00 0.9000E+01
#aMCatNLO 2  0  0  5  2 0.23375970D+01 0.00000000D+00  -5  6  0 0.00000000D+00 0.00000000D+00 0.00000000D+00 0.00000000D+00 0.00000000D+00
  <mgrwgt>
 0.1303072105D+03    1    2    0
 0.660641840930086D+02 0.000000000000000D+00 0.000000000000000D+00 0.660641840930086D+02
 0.660641840930086D+02 -.000000000000000D+00 -.000000000000000D+00 -.660641840930086D+02
 0.397109853615155D+02 -.333783811236686D+02 -.177935881485713D+02 -.120927355360420D+02
 0.584671394340112D+02 0.275182628997655D+02 0.261338797707097D+02 0.444766447554848D+02
 0.339502433904905D+02 0.586011822390306D+01 -.834029162213839D+01 -.323839092194428D+02
 0.000000000000000D+00 -.000000000000000D+00 0.000000000000000D+00 0.000000000000000D+00
 0.660641840930086D+02 0.000000000000000D+00 0.000000000000000D+00 0.660641840930086D+02
 0.660641840930086D+02 -.000000000000000D+00 -.000000000000000D+00 -.660641840930086D+02
 0.422882642228864D+02 -.320695859847760D+02 -.196563036629915D+02 -.193253375664689D+02
 0.512504333668324D+02 0.292694719249777D+02 0.236415078758877D+02 0.347991959515649D+02
 0.146898894177893D+02 0.134979340685273D+02 -.106562377853555D+01 0.569763748857256D+01
 0.238997811785093D+02 -.106978200087289D+02 -.291958043436066D+01 -.211714958736685D+02
0.224707131024D-03 0.000000000000D+00 0.000000000000D+00 0.752058630960D-02 0.271157162196D-03  6 2 21 -11 11 2 21 4 0.63279639D-01 0.16324559D-02 0.24934027D+04 0.15545435D+03 0.27788346D+04 0.14590485D+01  1  2  1  3  6  5        2 0.130307210455D+03
  </mgrwgt>
  </event>
  <event npLO=' -1 ' npNLO=' 1 '>
  6     66 0.13243562E+02 0.13021128E+02 0.75467711E-02 0.16611267E+00
        2 -1    0    0  502    0 0.00000000E+00 0.00000000E+00 0.39286899E+02 0.39286899E+02 0.00000000E+00 0.0000E+00 0.9000E+01
       21 -1    0    0  501  502 -.00000000E+00 -.00000000E+00 -.78013594E+02 0.78013594E+02 0.00000000E+00 0.0000E+00 0.9000E+01
       23  2    1    2    0    0 0.90512705E+01 0.93607837E+01 -.21049666E+02 0.95345377E+02 0.92076613E+02 0.0000E+00 0.0000E+00
      -11  1    3    3    0    0 0.24249682E+02 -.34450555E+02 0.45524876E+01 0.42374674E+02 0.00000000E+00 0.0000E+00 0.9000E+01
       11  1    3    3    0    0 -.15198412E+02 0.43811339E+02 -.25602153E+02 0.52970703E+02 0.00000000E+00 0.0000E+00 0.9000E+01
        2  1    1    2  501    0 -.90512705E+01 -.93607837E+01 -.17677029E+02 0.21955116E+02 0.00000000E+00 0.0000E+00 0.9000E+01
#aMCatNLO 1  0  0  5  2 0.27892259D+01 0.00000000D+00  -5  6  0 0.00000000D+00 0.00000000D+00 0.00000000D+00 0.00000000D+00 0.00000000D+00
  <mgrwgt>
 0.5321220313D+03    8    2    0
 0.553616491863763D+02 0.000000000000000D+00 0.000000000000000D+00 0.553616491863763D+02
 0.553616491863763D+02 -.000000000000000D+00 -.000000000000000D+00 -.553616491863763D+02
 0.464841005533709D+02 0.242496820846416D+02 -.344505552066143D+02 0.196439244807581D+02
 0.471626377489829D+02 -.151984115742016D+02 0.438113388749974D+02 -.859588686774684D+01
 0.170765600703988D+02 -.905127051043998D+01 -.936078366838309D+01 -.110480376130113D+02
 0.000000000000000D+00 0.000000000000000D+00 -.000000000000000D+00 0.000000000000000D+00
 0.553616491863763D+02 0.000000000000000D+00 0.000000000000000D+00 0.553616491863763D+02
 0.553616491863763D+02 -.000000000000000D+00 -.000000000000000D+00 -.553616491863763D+02
 0.464275261987832D+02 0.240345314109788D+02 -.346730630755308D+02 0.193813102176721D+02
 0.470735754988519D+02 -.154166295246610D+02 0.435856588420725D+02 -.886224506814852D+01
 0.699809022111064D+01 -.477685781817452D+01 -.123806003227346D+01 -.496206645302502D+01
 0.102241064540069D+02 -.384104406814326D+01 -.767453573426828D+01 -.555699869649858D+01
0.745223435182D-03 0.000000000000D+00 0.000000000000D+00 0.128300918391D-02 0.000000000000D+00  6 2 21 -11 11 2 21 2 0.60441383D-02 0.12002091D-01 0.25767412D+04 0.16954977D+03 0.28097358D+04 0.14520866D+01  1  2  2  3  6  5        2 0.127838280500D+03
0.635020985732D-04 0.361803994209D-04 0.164173028153D-05 0.128300918391D-02 0.000000000000D+00  6 2 21 -11 11 2 21 4 0.60441383D-02 0.12002091D-01 0.25767412D+04 0.16954977D+03 0.28097358D+04 0.14520866D+01  1  2  3  3  6  5        2 -.125901933304D+02
0.625649941341D-04 0.000000000000D+00 0.000000000000D+00 0.128300918391D-02 0.000000000000D+00  6 2 21 -11 11 2 21 4 0.60441383D-02 0.12002091D-01 0.25767412D+04 0.16954977D+03 0.28097358D+04 0.14520866D+01  1  2 15  3  6  5        2 0.226303285591D+02
0.104104981941D-04 0.000000000000D+00 0.000000000000D+00 0.127015688266D-02 0.000000000000D+00  6 2 21 -11 11 2 21 4 0.60441383D-02 0.12002091D-01 0.25977995D+04 0.18595333D+03 0.28379049D+04 0.14447953D+01  1  2 12  3  6  5        2 0.369319460123D+01
-.212529058192D-02 0.000000000000D+00 0.000000000000D+00 0.128300918391D-02 0.000000000000D+00  6 2 21 -11 11 2 21 4 0.60441383D-02 0.12002091D-01 0.25767412D+04 0.16954977D+03 0.28097358D+04 0.14520866D+01  1  2  4  3  6  5        2 -.768736972136D+03
-.101012177564D-02 0.000000000000D+00 0.000000000000D+00 0.128300918391D-02 0.000000000000D+00  6 2 21 -11 11 2 21 4 0.60441383D-02 0.12002091D-01 0.25767412D+04 0.16954977D+03 0.28097358D+04 0.14520866D+01  1  2  5  3  6  5        2 -.365370251909D+03
0.224328022618D-02 0.000000000000D+00 -.000000000000D+00 0.128300918391D-02 0.000000000000D+00  6 2 21 -11 11 2 21 4 0.60441383D-02 0.12002091D-01 0.25767412D+04 0.16954977D+03 0.28097358D+04 0.14520866D+01  1  2  6  3  6  5        2 0.811414901755D+03
0.201051206127D-02 0.000000000000D+00 0.000000000000D+00 0.128300918391D-02 0.881161959436D-03  6 2 21 -11 11 2 21 4 0.60441383D-02 0.12002091D-01 0.25977995D+04 0.18595333D+03 0.28379049D+04 0.14447953D+01  1  2 11  3  6  5        2 0.713242743231D+03
  </mgrwgt>
  </event>
  <event npLO=' -1 ' npNLO=' 1 '>
  6     66 0.13243562E+02 0.18864086E+02 0.75467711E-02 0.14761136E+00
        4 -1    0    0  502    0 0.00000000E+00 0.00000000E+00 0.15538215E+02 0.15538215E+02 0.00000000E+00 0.0000E+00 0.9000E+01
       21 -1    0    0  501  502 0.00000000E+00 0.00000000E+00 -.17675927E+03 0.17675927E+03 0.00000000E+00 0.0000E+00 0.9000E+01
       23  2    1    2    0    0 -.16078736E+02 -.98654941E+01 -.12308619E+03 0.14975196E+03 0.83184048E+02 0.0000E+00 0.0000E+00
      -13  1    3    3    0    0 -.17713877E+02 0.10263641E+02 0.41787176E+01 0.20894627E+02 0.00000000E+00 0.0000E+00 0.9000E+01
       13  1    3    3    0    0 0.16351403E+01 -.20129135E+02 -.12726491E+03 0.12885733E+03 0.00000000E+00 0.0000E+00 0.9000E+01
        4  1    1    2  501    0 0.16078736E+02 0.98654941E+01 -.38134870E+02 0.42545529E+02 0.00000000E+00 0.0000E+00 0.9000E+01
#aMCatNLO 1  0  0  2  1 0.48879110D+02 0.00000000D+00  -5  6  0 0.00000000D+00 0.00000000D+00 0.00000000D+00 0.00000000D+00 0.00000000D+00
  <mgrwgt>
 0.2682995360D+03    4    2    0
 0.524072856330200D+02 0.000000000000000D+00 0.000000000000000D+00 0.524072856330200D+02
 0.524072856330200D+02 0.000000000000000D+00 0.000000000000000D+00 -.524072856330200D+02
 0.447617302164943D+02 -.177138767190512D+02 0.102636411544541D+02 0.398056369602230D+02
 0.406542568700538D+02 0.163514033062650D+01 -.201291352740055D+02 -.352833222766262D+02
 0.193985841794919D+02 0.160787363884247D+02 0.986549411955138D+01 -.452231468359680D+01
 0.000000000000000D+00 0.000000000000000D+00 0.000000000000000D+00 0.000000000000000D+00
 0.792315405897579D+02 0.000000000000000D+00 0.000000000000000D+00 0.792315405897579D+02
 0.578524336115109D+02 0.000000000000000D+00 0.000000000000000D+00 -.578524336115109D+02
 0.437910123874120D+02 -.181994947690885D+02 0.139370809544825D+01 0.398056369602230D+02
 0.455361663511334D+02 0.116247710161977D+01 -.287624453423216D+02 -.352833222766262D+02
 0.176183788590953D+02 0.158757375328217D+02 0.615767012059737D+01 -.452231468359680D+01
 0.301384166036280D+02 0.116128013464705D+01 0.212110671262760D+02 0.213791069782470D+02
0.395576300390D-02 0.000000000000D+00 0.000000000000D+00 0.403767210709D-04 0.000000000000D+00  6 4 21 -13 13 4 21 2 0.23904946D-02 0.27193734D-01 0.88601587D+03 0.35585374D+03 0.27123406D+04 0.13965874D+01  1  2  2  2  6  2       21 0.314858248122D+03
-.256952404729D-03 0.192051240928D-03 0.871456210779D-05 0.403767210709D-04 0.000000000000D+00  6 4 21 -13 13 4 21 4 0.23904946D-02 0.27193734D-01 0.88601587D+03 0.35585374D+03 0.27123406D+04 0.13965874D+01  1  2  3  2  6  2       21 -.655751240020D+02
0.281879033370D-03 0.000000000000D+00 0.000000000000D+00 0.403767210709D-04 0.000000000000D+00  6 4 21 -13 13 4 21 4 0.23904946D-02 0.27193734D-01 0.88601587D+03 0.35585374D+03 0.27123406D+04 0.13965874D+01  1  2 15  2  6  2       21 0.437606574883D+02
-.159387094211D-03 0.000000000000D+00 0.000000000000D+00 0.403767210709D-04 0.000000000000D+00  6 4 21 -13 13 4 21 4 0.23904946D-02 0.27193734D-01 0.88601587D+03 0.35585374D+03 0.27123406D+04 0.13965874D+01  1  2  4  2  6  2       21 -.247442456235D+02
  </mgrwgt>
  </event>
  <event npLO=' -1 ' npNLO=' 1 '>
  7     66 0.13243562E+02 0.95905803E+02 0.75467711E-02 0.11585587E+00
        2 -1    0    0  502    0 0.00000000E+00 0.00000000E+00 0.10889594E+04 0.10889594E+04 0.00000000E+00 0.0000E+00 0.9000E+01
       21 -1    0    0  501  502 0.00000000E+00 0.00000000E+00 -.43673229E+02 0.43673229E+02 0.00000000E+00 0.0000E+00 0.9000E+01
       23  2    1    2    0    0 -.19478412E+02 0.97732214E+02 0.10160493E+04 0.10254770E+04 0.96518593E+02 0.0000E+00 0.0000E+00
      -13  1    3    3    0    0 -.30963257E+02 0.87284126E+02 0.99510474E+03 0.99940516E+03 0.00000000E+00 0.0000E+00 0.9000E+01
       13  1    3    3    0    0 0.11484845E+02 0.10448088E+02 0.20944550E+02 0.26071793E+02 0.00000000E+00 0.0000E+00 0.9000E+01
        2  1    1    2  503    0 0.22225219E+02 -.90572642E+02 0.32584743E+02 0.98788305E+02 0.00000000E+00 0.0000E+00 0.9000E+01
       21  1    1    2  501  503 -.27468066E+01 -.71595726E+01 -.33478701E+01 0.83673568E+01 0.00000000E+00 0.0000E+00 0.9000E+01
#aMCatNLO 2  0  0  5  2 0.92365776D+01 0.00000000D+00  -5  6  0 0.00000000D+00 0.00000000D+00 0.00000000D+00 0.00000000D+00 0.00000000D+00
  <mgrwgt>
 0.4043919999D+03    2    2    0
 0.218078821868102D+03 0.000000000000000D+00 0.000000000000000D+00 0.218078821868102D+03
 0.218078821868102D+03 -.000000000000000D+00 -.000000000000000D+00 -.218078821868102D+03
 0.211261514448006D+03 -.310399885755875D+02 0.876691236369204D+02 0.189689407603132D+03
 0.174967475290659D+02 0.114784753018925D+02 0.104800466434023D+02 -.803426419728823D+01
 0.207399381759132D+03 0.195615132736950D+02 -.981491702803227D+02 -.181655143405843D+03
 0.000000000000000D+00 0.000000000000000D+00 0.000000000000000D+00 -.000000000000000D+00
 0.218078821868102D+03 0.000000000000000D+00 0.000000000000000D+00 0.218078821868102D+03
 0.218078821868102D+03 -.000000000000000D+00 -.000000000000000D+00 -.218078821868102D+03
 0.210450688178642D+03 -.309632570090553D+02 0.872841258361840D+02 0.188976851088349D+03
 0.175090701668892D+02 0.114848446960263D+02 0.104480884436111D+02 -.809341264805433D+01
 0.178445744892515D+03 0.222252188703972D+02 -.905726417185168D+02 -.152136517932207D+03
 0.297521404981588D+02 -.274680655736826D+01 -.715957256127834D+01 -.287469205080887D+02
-.332241851525D-01 0.000000000000D+00 0.000000000000D+00 0.975198034243D-04 0.000000000000D+00  6 2 21 -13 13 2 21 4 0.16753221D+00 0.67189583D-02 0.10927326D+05 0.10627541D+05 0.14619581D+05 0.12066018D+01  1  2 13  3  6  5        2 -.350937315625D+03
0.715090698910D-01 0.000000000000D+00 0.000000000000D+00 0.979500574256D-04 0.427489278417D-04  6 2 21 -13 13 2 21 4 0.16753221D+00 0.67189583D-02 0.10927326D+05 0.10627541D+05 0.14619581D+05 0.12066018D+01  1  2  1  3  6  5        2 0.755329315532D+03
  </mgrwgt>
  </event>
  <event npLO=' -1 ' npNLO=' 1 '>
  7     66 -.13243562E+02 0.20502079E+02 0.75467711E-02 0.12989106E+00
        2 -1    0    0  502    0 0.00000000E+00 0.00000000E+00 0.29298106E+03 0.29298106E+03 0.00000000E+00 0.0000E+00 0.9000E+01
       21 -1    0    0  501  502 0.00000000E+00 0.00000000E+00 -.56557333E+02 0.56557333E+02 0.00000000E+00 0.0000E+00 0.9000E+01
       23  2    1    2    0    0 -.57506153E+02 -.29090711E+02 0.24485222E+03 0.26954237E+03 0.92451344E+02 0.0000E+00 0.0000E+00
      -11  1    3    3    0    0 0.16089840E+02 0.69593749E+01 0.86917386E+01 0.19566864E+02 0.00000000E+00 0.0000E+00 0.9000E+01
       11  1    3    3    0    0 -.73595993E+02 -.36050085E+02 0.23616048E+03 0.24997550E+03 0.00000000E+00 0.0000E+00 0.9000E+01
        2  1    1    2  503    0 0.32402863E+02 0.22604210E+01 -.23696996E+02 0.40206998E+02 0.00000000E+00 0.0000E+00 0.9000E+01
       21  1    1    2  501  503 0.25103290E+02 0.26830290E+02 0.15268504E+02 0.39789029E+02 0.00000000E+00 0.0000E+00 0.9000E+01
#aMCatNLO 2  0  0  5  2 0.22151689D+02 0.00000000D+00  -5  6  0 0.00000000D+00 0.00000000D+00 0.00000000D+00 0.00000000D+00 0.00000000D+00
  <mgrwgt>
 -.1502330175D+03    2    2    0
 0.128725395546714D+03 0.000000000000000D+00 0.000000000000000D+00 0.128725395546714D+03
 0.128725395546714D+03 -.000000000000000D+00 -.000000000000000D+00 -.128725395546714D+03
 0.179990909732949D+02 0.157086608980689D+02 0.676654716148629D+01 -.560527324631090D+01
 0.127326080575997D+03 -.761992549999777D+02 -.373670006602018D+02 0.949173935269731D+02
 0.112125619544136D+03 0.604905941019088D+02 0.306004534987155D+02 -.893121202806621D+02
 0.000000000000000D+00 0.000000000000000D+00 0.000000000000000D+00 0.000000000000000D+00
 0.128725395546714D+03 0.000000000000000D+00 0.000000000000000D+00 0.128725395546714D+03
 0.128725395546714D+03 -.000000000000000D+00 -.000000000000000D+00 -.128725395546714D+03
 0.185838898446464D+02 0.160898404488706D+02 0.695937494392332D+01 -.616807072574014D+01
 0.122516983668977D+03 -.735959934594879D+02 -.360500854455727D+02 0.910737743448809D+02
 0.763502091893199D+02 0.324028632541018D+02 0.226042096598820D+01 -.690963052069024D+02
 0.399997083904854D+02 0.251032897565155D+02 0.268302895356612D+02 -.158093984122383D+02
-.845984986622D-02 0.000000000000D+00 0.000000000000D+00 0.133099154270D-02 0.000000000000D+00  6 2 21 -11 11 2 21 4 0.45074009D-01 0.87011282D-02 0.71154285D+04 0.24830416D+04 0.59950431D+04 0.12775990D+01  1  2 13  3  6  5        2 -.321726975380D+03
0.450945443606D-02 0.000000000000D+00 0.000000000000D+00 0.126595172310D-02 0.143604585143D-04  6 2 21 -11 11 2 21 4 0.45074009D-01 0.87011282D-02 0.71154285D+04 0.24830416D+04 0.59950431D+04 0.12775990D+01  1  2  1  3  6  5        2 0.171493957844D+03
  </mgrwgt>
  </event>
  <event npLO=' -1 ' npNLO=' 1 '>
  6     66 0.13243562E+02 0.34476249E+02 0.75467711E-02 0.11345910E+00
        4 -1    0    0  502    0 0.00000000E+00 0.00000000E+00 0.28255152E+02 0.28255152E+02 0.00000000E+00 0.0000E+00 0.9000E+01
       21 -1    0    0  501  502 0.00000000E+00 0.00000000E+00 -.15374345E+03 0.15374345E+03 0.00000000E+00 0.0000E+00 0.9000E+01
       23  2    1    2    0    0 -.96360685E+01 0.33102235E+02 -.10107446E+03 0.13975351E+03 0.90146475E+02 0.0000E+00 0.0000E+00
      -11  1    3    3    0    0 -.11815096E+02 -.26520611E+02 -.96720359E+01 0.30602085E+02 0.00000000E+00 0.0000E+00 0.9000E+01
       11  1    3    3    0    0 0.21790278E+01 0.59622846E+02 -.91402420E+02 0.10915143E+03 0.00000000E+00 0.0000E+00 0.9000E+01
        4  1    1    2  501    0 0.96360685E+01 -.33102235E+02 -.24413837E+02 0.42245085E+02 0.00000000E+00 0.0000E+00 0.9000E+01
#aMCatNLO 1  0  0  1  1 0.13910604D+03 0.00000000D+00  -5  6  0 0.00000000D+00 0.00000000D+00 0.00000000D+00 0.00000000D+00 0.00000000D+00
  <mgrwgt>
 0.2095210830D+03    5    2    0
 0.659093656626443D+02 0.000000000000000D+00 0.000000000000000D+00 0.659093656626443D+02
 0.659093656626443D+02 0.000000000000000D+00 0.000000000000000D+00 -.659093656626443D+02
 0.330439323488110D+02 -.118150963567022D+02 -.265206110544751D+02 0.157785345470322D+02
 0.636895313259868D+02 0.217902782962406D+01 0.596228456692035D+02 -.222873173026256D+02
 0.350852676504908D+02 0.963606852707818D+01 -.331022346147284D+02 0.650878275559347D+01
 0.000000000000000D+00 -.000000000000000D+00 -.000000000000000D+00 0.000000000000000D+00
 0.177666232265043D+03 0.000000000000000D+00 0.000000000000000D+00 0.177666232265043D+03
 0.120540237185281D+03 0.000000000000000D+00 0.000000000000000D+00 -.120540237185281D+03
 0.202184083350970D+02 -.105033234922887D+02 -.703577136987596D+01 0.157785345470322D+02
 0.133996446345058D+03 0.704774178124883D+01 0.131941852557636D+03 -.222873173026256D+02
 0.185511775697718D+02 0.109570550342446D+02 -.134805371273636D+02 0.650878275559347D+01
 0.125440437200398D+03 -.750147332320470D+01 -.111425544060396D+03 0.571259950797619D+02
0.294288211514D-02 0.000000000000D+00 0.000000000000D+00 0.330544754895D-03 0.000000000000D+00  6 4 21 -11 11 4 21 2 0.43469465D-02 0.23652838D-01 0.37928549D+04 0.11886129D+04 0.42896283D+04 0.13189167D+01  1  2  2  1  6  1        4 0.113034028297D+03
-.274078537208D-03 0.142876143379D-03 0.648318135920D-05 0.330544754895D-03 0.000000000000D+00  6 4 21 -11 11 4 21 4 0.43469465D-02 0.23652838D-01 0.37928549D+04 0.11886129D+04 0.42896283D+04 0.13189167D+01  1  2  3  1  6  1        4 -.293358885029D+02
0.205177270078D-03 0.000000000000D+00 0.000000000000D+00 0.330544754895D-03 0.000000000000D+00  6 4 21 -11 11 4 21 4 0.43469465D-02 0.23652838D-01 0.37928549D+04 0.11886129D+04 0.42896283D+04 0.13189167D+01  1  2 15  1  6  1        4 0.137088280426D+02
0.492220008289D-02 0.000000000000D+00 -.429887474187D-02 0.330544754895D-03 0.000000000000D+00  6 4 21 -11 11 4 21 4 0.21095346D-01 0.23652838D-01 0.37928549D+04 0.11886129D+04 0.42896283D+04 0.13189167D+01  1  2  5  1  6  1        4 0.208808503717D+02
0.848058188950D-03 0.000000000000D+00 -.826034494505D-03 0.330544754895D-03 0.000000000000D+00  6 21 21 -11 11 4 -4 4 0.21095346D-01 0.23652838D-01 0.37928549D+04 0.11886129D+04 0.42896283D+04 0.13189167D+01  1  2  5  4  6  1        4 0.912332647669D+02
  </mgrwgt>
  </event>
  <event npLO=' -1 ' npNLO=' 1 '>
  6     66 0.13243562E+02 0.14648453E+02 0.75467711E-02 0.16867297E+00
        2 -1    0    0  502    0 0.00000000E+00 0.00000000E+00 0.17680629E+04 0.17680629E+04 0.00000000E+00 0.0000E+00 0.9000E+01
       21 -1    0    0  501  502 0.00000000E+00 0.00000000E+00 -.25870354E+01 0.25870354E+01 0.00000000E+00 0.0000E+00 0.9000E+01
       23  2    1    2    0    0 -.31608634E+01 0.14303360E+02 0.17384942E+04 0.17399484E+04 0.69595828E+02 0.0000E+00 0.0000E+00
      -13  1    3    3    0    0 0.16001690E+02 -.10198627E+02 0.13735111E+04 0.13736421E+04 0.00000000E+00 0.0000E+00 0.9000E+01
       13  1    3    3    0    0 -.19162553E+02 0.24501988E+02 0.36498315E+03 0.36630623E+03 0.00000000E+00 0.0000E+00 0.9000E+01
        2  1    1    2  501    0 0.31608634E+01 -.14303360E+02 0.26981623E+02 0.30701550E+02 0.00000000E+00 0.0000E+00 0.9000E+01
#aMCatNLO 1  0  0  1  2 0.68723599D+01 0.00000000D+00  -5  6  0 0.00000000D+00 0.00000000D+00 0.00000000D+00 0.00000000D+00 0.00000000D+00
  <mgrwgt>
 0.2751265826D+03   11    2    0
 0.676316579131710D+02 0.000000000000000D+00 0.000000000000000D+00 0.676316579131710D+02
 0.676316579131710D+02 0.000000000000000D+00 0.000000000000000D+00 -.676316579131710D+02
 0.542550673353313D+02 0.160016899478416D+02 -.101986273913988D+02 0.508285967709702D+02
 0.312808510991228D+02 -.191625533089859D+02 0.245019877490671D+02 -.330768688214753D+01
 0.497273973918880D+02 0.316086336114428D+01 -.143033603576683D+02 -.475209098888227D+02
 0.000000000000000D+00 0.000000000000000D+00 -.000000000000000D+00 0.000000000000000D+00
 0.919694089925747D+02 0.000000000000000D+00 0.000000000000000D+00 0.919694089925747D+02
 0.681909856987416D+02 0.000000000000000D+00 0.000000000000000D+00 -.681909856987416D+02
 0.533913904653666D+02 0.140680301449057D+02 -.831774332144131D+01 0.508285967709702D+02
 0.328658056974648D+02 -.203148235673341D+02 0.256228088831272D+02 -.330768688214753D+01
 0.491761090100435D+02 0.138425372060313D+01 -.125752400511112D+02 -.475209098888227D+02
 0.247270895184414D+02 0.486253970182529D+01 -.472982551057471D+01 0.237784232938330D+02
0.290548915006D-03 0.000000000000D+00 0.000000000000D+00 0.744568479199D-04 0.000000000000D+00  6 2 21 -13 13 2 21 2 0.27200967D+00 0.39800544D-03 0.10474719D+04 0.21457717D+03 0.18390877D+04 0.14337153D+01  1  2  2  1  6  1        2 0.846179571509D+02
0.185006453174D-04 0.141060724877D-04 0.640080450390D-06 0.744568479199D-04 0.000000000000D+00  6 2 21 -13 13 2 21 4 0.27200967D+00 0.39800544D-03 0.10474719D+04 0.21457717D+03 0.18390877D+04 0.14337153D+01  1  2  3  1  6  1        2 -.209750037747D+01
0.253001377372D-04 0.000000000000D+00 0.000000000000D+00 0.744568479199D-04 0.000000000000D+00  6 2 21 -13 13 2 21 4 0.27200967D+00 0.39800544D-03 0.10474719D+04 0.21457717D+03 0.18390877D+04 0.14337153D+01  1  2 15  1  6  1        2 0.151457928065D+02
0.706371940232D-02 0.000000000000D+00 0.000000000000D+00 0.767775337132D-04 0.000000000000D+00  6 2 21 -13 13 2 21 4 0.37295346D+00 0.39800544D-03 0.11722622D+04 0.16167806D+03 0.17415228D+04 0.14558870D+01  1  2 12  1  6  1        2 0.208744859700D+04
-.718626421691D-02 0.000000000000D+00 0.000000000000D+00 0.744568479199D-04 0.000000000000D+00  6 2 21 -13 13 2 21 4 0.27200967D+00 0.39800544D-03 0.10474719D+04 0.21457717D+03 0.18390877D+04 0.14337153D+01  1  2  4  1  6  1        2 -.430201882742D+04
-.750746019839D-02 0.000000000000D+00 -.383449785902D-03 0.744568479199D-04 0.000000000000D+00  6 2 21 -13 13 2 21 4 0.37073355D+00 0.39800544D-03 0.10474719D+04 0.21457717D+03 0.18390877D+04 0.14337153D+01  1  2  5  1  6  1        2 -.219217845584D+04
0.729151050292D-02 0.000000000000D+00 0.365773911538D-03 0.744568479199D-04 0.000000000000D+00  6 2 21 -13 13 2 21 4 0.27200967D+00 0.39800544D-03 0.10474719D+04 0.21457717D+03 0.18390877D+04 0.14337153D+01  1  2  6  1  6  1        2 0.448827921746D+04
0.318631428725D-03 0.000000000000D+00 0.000000000000D+00 0.744568479199D-04 0.264211754433D-04  6 2 21 -13 13 2 21 4 0.36989436D+00 0.40129703D-03 0.11722622D+04 0.16167806D+03 0.17415228D+04 0.14558870D+01  1  2 11  1  6  1        2 0.953667123722D+02
0.283232479543D-03 0.000000000000D+00 0.000000000000D+00 0.767775337132D-04 0.000000000000D+00  6 21 21 -13 13 2 -2 4 0.37295346D+00 0.39800544D-03 0.11722622D+04 0.16167806D+03 0.17415228D+04 0.14558870D+01  1  2 12  4  6  1        2 0.152777155110D+02
-.287881191441D-03 0.000000000000D+00 -.151648652556D-04 0.744568479199D-04 0.000000000000D+00  6 21 21 -13 13 2 -2 4 0.37073355D+00 0.39800544D-03 0.10474719D+04 0.21457717D+03 0.18390877D+04 0.14337153D+01  1  2  5  4  6  1        2 -.154581095957D+02
0.134193965741D-04 0.000000000000D+00 0.000000000000D+00 0.744568479199D-04 0.110846092211D-05  6 21 21 -13 13 2 -2 4 0.36989436D+00 0.40129703D-03 0.11722622D+04 0.16167806D+03 0.17415228D+04 0.14558870D+01  1  2 11  4  6  1        2 0.743483578385D+00
  </mgrwgt>
  </event>
  <event npLO=' -1 ' npNLO=' 1 '>
  6     66 0.13243562E+02 0.35084585E+02 0.75467711E-02 0.13421019E+00
        2 -1    0    0  502    0 0.00000000E+00 0.00000000E+00 0.21826385E+03 0.21826385E+03 0.00000000E+00 0.0000E+00 0.9000E+01
       21 -1    0    0  501  502 0.00000000E+00 0.00000000E+00 -.12280929E+03 0.12280929E+03 0.00000000E+00 0.0000E+00 0.9000E+01
       23  2    1    2    0    0 0.27925267E+02 0.21239293E+02 0.20128686E+03 0.22957694E+03 0.10468163E+03 0.0000E+00 0.0000E+00
      -13  1    3    3    0    0 0.16766412E+02 -.65576534E+01 -.68748819E+01 0.19271207E+02 0.00000000E+00 0.0000E+00 0.9000E+01
       13  1    3    3    0    0 0.11158855E+02 0.27796946E+02 0.20816174E+03 0.21030573E+03 0.00000000E+00 0.0000E+00 0.9000E+01
        2  1    1    2  501    0 -.27925267E+02 -.21239293E+02 -.10583230E+03 0.11149621E+03 0.00000000E+00 0.0000E+00 0.9000E+01
#aMCatNLO 1  0  0  5  5 0.39899256D+02 0.00000000D+00  -5  6  0 0.00000000D+00 0.00000000D+00 0.00000000D+00 0.00000000D+00 0.00000000D+00
  <mgrwgt>
 0.1624317873D+03    4    2    0
 0.163721806426337D+03 0.000000000000000D+00 0.000000000000000D+00 0.163721806426337D+03
 0.163721806426337D+03 -.000000000000000D+00 -.000000000000000D+00 -.163721806426337D+03
 0.220774803177068D+02 0.167664123671022D+02 -.655765342746591D+01 -.127788784734911D+02
 0.158377348864375D+03 0.111588545466679D+02 0.277969462083716D+02 0.155519112587499D+03
 0.146988783670592D+03 -.279252669137701D+02 -.212392927809057D+02 -.142740234114008D+03
 0.000000000000000D+00 0.000000000000000D+00 0.000000000000000D+00 0.000000000000000D+00
 0.163721806426337D+03 0.000000000000000D+00 0.000000000000000D+00 0.163721806426337D+03
 0.163721806426337D+03 -.000000000000000D+00 -.000000000000000D+00 -.163721806426337D+03
 0.238207550848409D+02 0.161254795857771D+02 -.704513163268694D+01 -.160550117165567D+02
 0.136869010203019D+03 0.703597120630631D+01 0.246611793547241D+02 0.134444960098816D+03
 0.142805758162548D+03 -.250356745278204D+02 -.329682516899805D+02 -.136674042692178D+03
 0.239480894022659D+02 0.187422373573695D+01 0.153522039679433D+02 0.182840943099183D+02
0.288941530472D-01 0.000000000000D+00 0.000000000000D+00 0.308818002058D-03 0.000000000000D+00  6 2 21 -13 13 2 21 2 0.33579054D-01 0.18893738D-01 0.17239488D+04 0.12309281D+04 0.52917742D+04 0.13168602D+01  1  2  2  3  6  5        2 0.262186941381D+03
0.232062308505D-02 0.140280343965D-02 0.636539375675D-04 0.308818002058D-03 0.000000000000D+00  6 2 21 -13 13 2 21 4 0.33579054D-01 0.18893738D-01 0.17239488D+04 0.12309281D+04 0.52917742D+04 0.13168602D+01  1  2  3  3  6  5        2 0.302039746876D+02
0.303874075929D-02 0.000000000000D+00 0.000000000000D+00 0.308818002058D-03 0.000000000000D+00  6 2 21 -13 13 2 21 4 0.33579054D-01 0.18893738D-01 0.17239488D+04 0.12309281D+04 0.52917742D+04 0.13168602D+01  1  2 15  3  6  5        2 0.478160934257D+02
-.112977195547D-01 0.000000000000D+00 0.000000000000D+00 0.308818002058D-03 0.000000000000D+00  6 2 21 -13 13 2 21 4 0.33579054D-01 0.18893738D-01 0.17239488D+04 0.12309281D+04 0.52917742D+04 0.13168602D+01  1  2  4  3  6  5        2 -.177775222211D+03
  </mgrwgt>
  </event>
  <event npLO=' -1 ' npNLO=' 1 '>
  6     66 0.13243562E+02 0.32953841E+02 0.75467711E-02 0.11537657E+00
        4 -1    0    0  502    0 0.00000000E+00 0.00000000E+00 0.13293352E+03 0.13293352E+03 0.00000000E+00 0.0000E+00 0.9000E+01
       21 -1    0    0  501  502 0.00000000E+00 0.00000000E+00 -.32017375E+02 0.32017375E+02 0.00000000E+00 0.0000E+00 0.9000E+01
       23  2    1    2    0    0 -.30745715E+02 -.11859876E+02 0.80811423E+02 0.12634836E+03 0.91364472E+02 0.0000E+00 0.0000E+00
      -13  1    3    3    0    0 -.33896065E+02 -.47672162E+02 0.35187295E+02 0.68262170E+02 0.00000000E+00 0.0000E+00 0.9000E+01
       13  1    3    3    0    0 0.31503498E+01 0.35812286E+02 0.45624129E+02 0.58086191E+02 0.00000000E+00 0.0000E+00 0.9000E+01
        4  1    1    2  501    0 0.30745715E+02 0.11859876E+02 0.20104719E+02 0.38602531E+02 0.00000000E+00 0.0000E+00 0.9000E+01
#aMCatNLO 1  0  0  2  5 0.12560421D+03 0.00000000D+00  -5  6  0 0.00000000D+00 0.00000000D+00 0.00000000D+00 0.00000000D+00 0.00000000D+00
  <mgrwgt>
 0.2801313340D+02   14    2    0
 0.652394227978609D+02 0.000000000000000D+00 0.000000000000000D+00 0.652394227978609D+02
 0.652394227978609D+02 0.000000000000000D+00 0.000000000000000D+00 -.652394227978609D+02
 0.590819136894778D+02 -.338960649457029D+02 -.476721615057530D+02 -.831229954807946D+01
 0.381453254711418D+02 0.315034977915882D+01 0.358122855892147D+02 0.127523077301649D+02
 0.332516064351022D+02 0.307457151665440D+02 0.118598759165383D+02 -.444000818208547D+01
 0.000000000000000D+00 0.000000000000000D+00 0.000000000000000D+00 -.000000000000000D+00
 0.108223827120229D+03 0.000000000000000D+00 0.000000000000000D+00 0.108223827120229D+03
 0.205028047421298D+03 0.000000000000000D+00 0.000000000000000D+00 -.205028047421298D+03
 0.119708316448341D+03 -.445975140919162D+02 -.110779278025904D+03 -.831229954807946D+01
 0.199305653383382D+02 -.325769646604082D+00 0.153133914074673D+02 0.127523077301649D+02
 0.292035379729702D+02 0.270074764983170D+02 -.101847518710365D+02 -.444000818208547D+01
 0.144409454781878D+03 0.179158072402033D+02 0.105650638489473D+03 -.968042203010684D+02
0.737914363227D-03 0.000000000000D+00 0.000000000000D+00 0.603835329152D-03 0.000000000000D+00  6 4 21 -13 13 4 21 2 0.20451310D-01 0.49257500D-02 0.40576061D+04 0.10859557D+04 0.42301787D+04 0.13242726D+01  1  2  2  2  6  2       21 0.293485527882D+02
-.512640622103D-04 0.358255459230D-04 0.162562836607D-05 0.603835329152D-03 0.000000000000D+00  6 4 21 -13 13 4 21 4 0.20451310D-01 0.49257500D-02 0.40576061D+04 0.10859557D+04 0.42301787D+04 0.13242726D+01  1  2  3  2  6  2       21 -.686460059066D+01
0.576294732472D-04 0.000000000000D+00 0.000000000000D+00 0.603835329152D-03 0.000000000000D+00  6 4 21 -13 13 4 21 4 0.20451310D-01 0.49257500D-02 0.40576061D+04 0.10859557D+04 0.42301787D+04 0.13242726D+01  1  2 15  2  6  2       21 0.401957542384D+01
0.401753163312D-03 0.000000000000D+00 -.402694453144D-02 0.603835329152D-03 0.000000000000D+00  6 4 21 -13 13 4 21 4 0.20451310D-01 0.25173666D-01 0.40576061D+04 0.10859557D+04 0.42301787D+04 0.13242726D+01  1  2  5  2  6  2       21 0.106857246857D+01
0.205421974274D-03 0.000000000000D+00 -.166961574917D-02 0.603835329152D-03 0.000000000000D+00  6 4 -1 -13 13 4 -1 4 0.20451310D-01 0.25173666D-01 0.40576061D+04 0.10859557D+04 0.42301787D+04 0.13242726D+01  1  2  5  5  6  2       21 0.541842970759D-01
0.205421974274D-03 0.000000000000D+00 -.166961574917D-02 0.603835329152D-03 0.000000000000D+00  6 4 -3 -13 13 4 -3 4 0.20451310D-01 0.25173666D-01 0.40576061D+04 0.10859557D+04 0.42301787D+04 0.13242726D+01  1  2  5  5  6  2       21 0.388012123399D-01
0.205421974274D-03 0.000000000000D+00 -.166961574917D-02 0.603835329152D-03 0.000000000000D+00  6 4 -5 -13 13 4 -5 4 0.20451310D-01 0.25173666D-01 0.40576061D+04 0.10859557D+04 0.42301787D+04 0.13242726D+01  1  2  5  5  6  2       21 0.152602953945D-01
0.205421974274D-03 0.000000000000D+00 -.166961574917D-02 0.603835329152D-03 0.000000000000D+00  6 4 1 -13 13 4 1 4 0.20451310D-01 0.25173666D-01 0.40576061D+04 0.10859557D+04 0.42301787D+04 0.13242726D+01  1  2  5  6  6  2       21 0.809673024907D-01
0.205421974274D-03 0.000000000000D+00 -.166961574917D-02 0.603835329152D-03 0.000000000000D+00  6 4 3 -13 13 4 3 4 0.20451310D-01 0.25173666D-01 0.40576061D+04 0.10859557D+04 0.42301787D+04 0.13242726D+01  1  2  5  6  6  2       21 0.389114095759D-01
0.205421974274D-03 0.000000000000D+00 -.166961574917D-02 0.603835329152D-03 0.000000000000D+00  6 4 5 -13 13 4 5 4 0.20451310D-01 0.25173666D-01 0.40576061D+04 0.10859557D+04 0.42301787D+04 0.13242726D+01  1  2  5  6  6  2       21 0.152276886865D-01
0.205421974274D-03 0.000000000000D+00 -.166961574917D-02 0.603835329152D-03 0.000000000000D+00  6 4 -4 -13 13 4 -4 4 0.20451310D-01 0.25173666D-01 0.40576061D+04 0.10859557D+04 0.42301787D+04 0.13242726D+01  1  2  5  7  6  2       21 0.239074514390D-01
0.205421974274D-03 0.000000000000D+00 -.166961574917D-02 0.603835274736D-03 0.000000000000D+00  6 4 4 -13 13 4 4 4 0.20451310D-01 0.25173666D-01 0.40576061D+04 0.10859567D+04 0.42301798D+04 0.13242726D+01  1  2  5  8  6  2       21 0.238112317027D-01
0.205421974274D-03 0.000000000000D+00 -.166961574917D-02 0.603835329152D-03 0.000000000000D+00  6 4 -2 -13 13 4 -2 4 0.20451310D-01 0.25173666D-01 0.40576061D+04 0.10859557D+04 0.42301787D+04 0.13242726D+01  1  2  5  9  6  2       21 0.492706878125D-01
0.205421974274D-03 0.000000000000D+00 -.166961574917D-02 0.603835329152D-03 0.000000000000D+00  6 4 2 -13 13 4 2 4 0.20451310D-01 0.25173666D-01 0.40576061D+04 0.10859557D+04 0.42301787D+04 0.13242726D+01  1  2  5 10  6  2       21 0.100691730439D+00
  </mgrwgt>
  </event>
  <event npLO=' -1 ' npNLO=' 1 '>
  6     66 0.13243562E+02 0.16331893E+02 0.75467711E-02 0.15620164E+00
        2 -1    0    0  502    0 0.00000000E+00 0.00000000E+00 0.30149598E+03 0.30149598E+03 0.00000000E+00 0.0000E+00 0.9000E+01
       21 -1    0    0  501  502 0.00000000E+00 0.00000000E+00 -.14182535E+02 0.14182535E+02 0.00000000E+00 0.0000E+00 0.9000E+01
       23  2    1    2    0    0 0.11779789E+02 0.11312263E+02 0.28388864E+03 0.29899139E+03 0.92392440E+02 0.0000E+00 0.0000E+00
      -13  1    3    3    0    0 -.91023403E+01 -.31359813E+02 0.46038855E+02 0.56443482E+02 0.00000000E+00 0.0000E+00 0.9000E+01
       13  1    3    3    0    0 0.20882130E+02 0.42672076E+02 0.23784978E+03 0.24254791E+03 0.00000000E+00 0.0000E+00 0.9000E+01
        2  1    1    2  501    0 -.11779789E+02 -.11312263E+02 0.34248062E+01 0.16687122E+02 0.00000000E+00 0.0000E+00 0.9000E+01
#aMCatNLO 1  0  0  2  1 0.95925517D+01 0.00000000D+00  -5  6  0 0.00000000D+00 0.00000000D+00 0.00000000D+00 0.00000000D+00 0.00000000D+00
  <mgrwgt>
 0.9759703215D+03   49    2    0
 0.653909565679790D+02 0.000000000000000D+00 0.000000000000000D+00 0.653909565679790D+02
 0.653909565679790D+02 0.000000000000000D+00 0.000000000000000D+00 -.653909565679790D+02
 0.350997499469358D+02 -.910234028814069D+01 -.313598129819159D+02 -.128725280095083D+02
 0.629270761794404D+02 0.208821297800864D+02 0.426720761403364D+02 0.412655726994557D+02
 0.327550870095817D+02 -.117797894919457D+02 -.113122631584205D+02 -.283930446899475D+02
 0.000000000000000D+00 -.000000000000000D+00 -.000000000000000D+00 -.000000000000000D+00
 0.661773441584983D+02 0.000000000000000D+00 0.000000000000000D+00 0.661773441584983D+02
 0.102008621063737D+03 0.000000000000000D+00 0.000000000000000D+00 -.102008621063737D+03
 0.329087604231995D+02 -.782529681270859D+01 -.292583195865549D+02 -.128725280095083D+02
 0.665177267199087D+02 0.233128055892098D+02 0.466719784595649D+02 0.412655726994557D+02
 0.316978526265491D+02 -.105695114607585D+02 -.932063848939371D+01 -.283930446899475D+02
 0.370616254525779D+02 -.491799731574271D+01 -.809302038361630D+01 -.358312769052386D+02
0.224373104095D-03 0.000000000000D+00 0.000000000000D+00 0.220259494520D-02 0.000000000000D+00  6 2 21 -13 13 2 21 2 0.46383997D-01 0.21819284D-02 0.23277522D+04 0.26673074D+03 0.30336244D+04 0.14173717D+01  1  2  2  2  6  2       21 0.521911108461D+02
0.122978207777D-04 0.108932544821D-04 0.494294867773D-06 0.220259494520D-02 0.000000000000D+00  6 2 21 -13 13 2 21 4 0.46383997D-01 0.21819284D-02 0.23277522D+04 0.26673074D+03 0.30336244D+04 0.14173717D+01  1  2  3  2  6  2       21 -.521999727768D+01
0.204700564370D-04 0.000000000000D+00 0.000000000000D+00 0.220259494520D-02 0.000000000000D+00  6 2 21 -13 13 2 21 4 0.46383997D-01 0.21819284D-02 0.23277522D+04 0.26673074D+03 0.30336244D+04 0.14173717D+01  1  2 15  2  6  2       21 0.956560221750D+01
0.190552595370D-02 0.000000000000D+00 0.000000000000D+00 0.203056893423D-02 0.000000000000D+00  6 2 21 -13 13 2 21 4 0.46383997D-01 0.34446994D-02 0.28100338D+04 0.60310234D+03 0.35906670D+04 0.13608972D+01  1  2 12  2  6  2       21 0.383594279065D+03
0.190552595370D-02 0.000000000000D+00 0.000000000000D+00 0.203056893423D-02 0.000000000000D+00  6 2 21 -13 13 2 21 4 0.46383997D-01 0.34446994D-02 0.28100338D+04 0.60310234D+03 0.35906670D+04 0.13608972D+01  1  2 12  2  6  2       21 0.383594279065D+03
-.973869099066D-03 0.000000000000D+00 0.000000000000D+00 0.220259494520D-02 0.000000000000D+00  6 2 21 -13 13 2 21 4 0.46383997D-01 0.21819284D-02 0.23277522D+04 0.26673074D+03 0.30336244D+04 0.14173717D+01  1  2  4  2  6  2       21 -.455086405953D+03
-.343288942323D-02 0.000000000000D+00 -.213497785878D-03 0.220259494520D-02 0.000000000000D+00  6 2 21 -13 13 2 21 4 0.46383997D-01 0.34407157D-02 0.23277522D+04 0.26673074D+03 0.30336244D+04 0.14173717D+01  1  2  5  2  6  2       21 -.818667285700D+03
0.297352998088D-02 0.000000000000D+00 0.145565601094D-03 0.220259494520D-02 0.000000000000D+00  6 2 21 -13 13 2 21 4 0.46383997D-01 0.21819284D-02 0.23277522D+04 0.26673074D+03 0.30336244D+04 0.14173717D+01  1  2  6  2  6  2       21 0.140753862429D+04
0.389044249616D-08 0.000000000000D+00 0.000000000000D+00 0.220259494520D-02 0.146596557982D-02  6 2 21 -13 13 2 21 4 0.46941808D-01 0.34037659D-02 0.28100338D+04 0.60310234D+03 0.35906670D+04 0.13608972D+01  1  2 11  2  6  2       21 0.787781272641D-03
0.240273952439D-03 0.000000000000D+00 0.000000000000D+00 0.215210061917D-02 0.000000000000D+00  6 2 -1 -13 13 2 -1 4 0.46383997D-01 0.34446994D-02 0.28100338D+04 0.33420393D+03 0.31620902D+04 0.14010310D+01  1  2 12  5  6  2       21 0.321335230854D+01
0.240273952439D-03 0.000000000000D+00 0.000000000000D+00 0.215210061917D-02 0.000000000000D+00  6 2 -3 -13 13 2 -3 4 0.46383997D-01 0.34446994D-02 0.28100338D+04 0.33420393D+03 0.31620902D+04 0.14010310D+01  1  2 12  5  6  2       21 0.290948195102D+01
0.240273952439D-03 0.000000000000D+00 0.000000000000D+00 0.215210061917D-02 0.000000000000D+00  6 2 -5 -13 13 2 -5 4 0.46383997D-01 0.34446994D-02 0.28100338D+04 0.33420393D+03 0.31620902D+04 0.14010310D+01  1  2 12  5  6  2       21 0.142280038933D+01
0.240273952439D-03 0.000000000000D+00 0.000000000000D+00 0.215210061917D-02 0.000000000000D+00  6 2 -1 -13 13 2 -1 4 0.46383997D-01 0.34446994D-02 0.28100338D+04 0.33420393D+03 0.31620902D+04 0.14010310D+01  1  2 12  5  6  2       21 0.321335230854D+01
0.240273952439D-03 0.000000000000D+00 0.000000000000D+00 0.215210061917D-02 0.000000000000D+00  6 2 -3 -13 13 2 -3 4 0.46383997D-01 0.34446994D-02 0.28100338D+04 0.33420393D+03 0.31620902D+04 0.14010310D+01  1  2 12  5  6  2       21 0.290948195102D+01
0.240273952439D-03 0.000000000000D+00 0.000000000000D+00 0.215210061917D-02 0.000000000000D+00  6 2 -5 -13 13 2 -5 4 0.46383997D-01 0.34446994D-02 0.28100338D+04 0.33420393D+03 0.31620902D+04 0.14010310D+01  1  2 12  5  6  2       21 0.142280038933D+01
-.285206943192D-03 0.000000000000D+00 -.333672677840D-04 0.220259494520D-02 0.000000000000D+00  6 2 -1 -13 13 2 -1 4 0.46383997D-01 0.34407157D-02 0.23277522D+04 0.26673074D+03 0.30336244D+04 0.14173717D+01  1  2  5  5  6  2       21 -.411420275089D+01
-.285206943192D-03 0.000000000000D+00 -.333672677840D-04 0.220259494520D-02 0.000000000000D+00  6 2 -3 -13 13 2 -3 4 0.46383997D-01 0.34407157D-02 0.23277522D+04 0.26673074D+03 0.30336244D+04 0.14173717D+01  1  2  5  5  6  2       21 -.372435460733D+01
-.285206943192D-03 0.000000000000D+00 -.333672677840D-04 0.220259494520D-02 0.000000000000D+00  6 2 -5 -13 13 2 -5 4 0.46383997D-01 0.34407157D-02 0.23277522D+04 0.26673074D+03 0.30336244D+04 0.14173717D+01  1  2  5  5  6  2       21 -.181444224756D+01
0.116273515142D-08 0.000000000000D+00 0.000000000000D+00 0.220259494520D-02 0.539056363600D-04  6 2 -1 -13 13 2 -1 4 0.46941808D-01 0.34037659D-02 0.28100338D+04 0.33420393D+03 0.31620902D+04 0.14010310D+01  1  2 11  5  6  2       21 0.156165830543D-04
0.116273515142D-08 0.000000000000D+00 0.000000000000D+00 0.220259494520D-02 0.539056363600D-04  6 2 -3 -13 13 2 -3 4 0.46941808D-01 0.34037659D-02 0.28100338D+04 0.33420393D+03 0.31620902D+04 0.14010310D+01  1  2 11  5  6  2       21 0.141472958580D-04
0.116273515142D-08 0.000000000000D+00 0.000000000000D+00 0.220259494520D-02 0.539056363600D-04  6 2 -5 -13 13 2 -5 4 0.46941808D-01 0.34037659D-02 0.28100338D+04 0.33420393D+03 0.31620902D+04 0.14010310D+01  1  2 11  5  6  2       21 0.692748429283D-05
0.240273952439D-03 0.000000000000D+00 0.000000000000D+00 0.215210061917D-02 0.000000000000D+00  6 2 1 -13 13 2 1 4 0.46383997D-01 0.34446994D-02 0.28100338D+04 0.33420393D+03 0.31620902D+04 0.14010310D+01  1  2 12  6  6  2       21 0.348916990921D+01
0.240273952439D-03 0.000000000000D+00 0.000000000000D+00 0.215210061917D-02 0.000000000000D+00  6 2 3 -13 13 2 3 4 0.46383997D-01 0.34446994D-02 0.28100338D+04 0.33420393D+03 0.31620902D+04 0.14010310D+01  1  2 12  6  6  2       21 0.290493524895D+01
0.240273952439D-03 0.000000000000D+00 0.000000000000D+00 0.215210061917D-02 0.000000000000D+00  6 2 5 -13 13 2 5 4 0.46383997D-01 0.34446994D-02 0.28100338D+04 0.33420393D+03 0.31620902D+04 0.14010310D+01  1  2 12  6  6  2       21 0.142254974303D+01
0.240273952439D-03 0.000000000000D+00 0.000000000000D+00 0.215210061917D-02 0.000000000000D+00  6 2 1 -13 13 2 1 4 0.46383997D-01 0.34446994D-02 0.28100338D+04 0.33420393D+03 0.31620902D+04 0.14010310D+01  1  2 12  6  6  2       21 0.348916990921D+01
0.240273952439D-03 0.000000000000D+00 0.000000000000D+00 0.215210061917D-02 0.000000000000D+00  6 2 3 -13 13 2 3 4 0.46383997D-01 0.34446994D-02 0.28100338D+04 0.33420393D+03 0.31620902D+04 0.14010310D+01  1  2 12  6  6  2       21 0.290493524895D+01
0.240273952439D-03 0.000000000000D+00 0.000000000000D+00 0.215210061917D-02 0.000000000000D+00  6 2 5 -13 13 2 5 4 0.46383997D-01 0.34446994D-02 0.28100338D+04 0.33420393D+03 0.31620902D+04 0.14010310D+01  1  2 12  6  6  2       21 0.142254974303D+01
-.285206943192D-03 0.000000000000D+00 -.333672677840D-04 0.220259494520D-02 0.000000000000D+00  6 2 1 -13 13 2 1 4 0.46383997D-01 0.34407157D-02 0.23277522D+04 0.26673074D+03 0.30336244D+04 0.14173717D+01  1  2  5  6  6  2       21 -.446751740402D+01
-.285206943192D-03 0.000000000000D+00 -.333672677840D-04 0.220259494520D-02 0.000000000000D+00  6 2 3 -13 13 2 3 4 0.46383997D-01 0.34407157D-02 0.23277522D+04 0.26673074D+03 0.30336244D+04 0.14173717D+01  1  2  5  6  6  2       21 -.371849193054D+01
-.285206943192D-03 0.000000000000D+00 -.333672677840D-04 0.220259494520D-02 0.000000000000D+00  6 2 5 -13 13 2 5 4 0.46383997D-01 0.34407157D-02 0.23277522D+04 0.26673074D+03 0.30336244D+04 0.14173717D+01  1  2  5  6  6  2       21 -.181412340439D+01
0.121952107964D-08 0.000000000000D+00 0.000000000000D+00 0.220259494520D-02 0.565382922949D-04  6 2 1 -13 13 2 1 4 0.46941808D-01 0.34037659D-02 0.28100338D+04 0.33420393D+03 0.31620902D+04 0.14010310D+01  1  2 11  6  6  2       21 0.177720285790D-04
0.121952107964D-08 0.000000000000D+00 0.000000000000D+00 0.220259494520D-02 0.565382922949D-04  6 2 3 -13 13 2 3 4 0.46941808D-01 0.34037659D-02 0.28100338D+04 0.33420393D+03 0.31620902D+04 0.14010310D+01  1  2 11  6  6  2       21 0.148147834173D-04
0.121952107964D-08 0.000000000000D+00 0.000000000000D+00 0.220259494520D-02 0.565382922949D-04  6 2 5 -13 13 2 5 4 0.46941808D-01 0.34037659D-02 0.28100338D+04 0.33420393D+03 0.31620902D+04 0.14010310D+01  1  2 11  6  6  2       21 0.726456283584D-05
0.240273952439D-03 0.000000000000D+00 0.000000000000D+00 0.203056893423D-02 0.000000000000D+00  6 2 -2 -13 13 2 -2 4 0.46383997D-01 0.34446994D-02 0.28100338D+04 0.60310234D+03 0.35906670D+04 0.13608972D+01  1  2 12  7  6  2       21 0.286829194541D+01
0.240273952439D-03 0.000000000000D+00 0.000000000000D+00 0.203056893423D-02 0.000000000000D+00  6 2 -2 -13 13 2 -2 4 0.46383997D-01 0.34446994D-02 0.28100338D+04 0.60310234D+03 0.35906670D+04 0.13608972D+01  1  2 12  7  6  2       21 0.286829194541D+01
-.285206943192D-03 0.000000000000D+00 -.333672677840D-04 0.220259494520D-02 0.000000000000D+00  6 2 -2 -13 13 2 -2 4 0.46383997D-01 0.34407157D-02 0.23277522D+04 0.26673074D+03 0.30336244D+04 0.14173717D+01  1  2  5  7  6  2       21 -.409052565583D+01
0.648283780387D-09 0.000000000000D+00 0.000000000000D+00 0.220259494520D-02 0.238646823468D-03  6 2 -2 -13 13 2 -2 4 0.46941808D-01 0.34037659D-02 0.28100338D+04 0.60310234D+03 0.35906670D+04 0.13608972D+01  1  2 11  7  6  2       21 0.777340972811D-05
0.240273989999D-03 0.000000000000D+00 0.000000000000D+00 0.215210061917D-02 0.000000000000D+00  6 2 2 -13 13 2 2 4 0.46383997D-01 0.34446994D-02 0.28100338D+04 0.33420393D+03 0.31620902D+04 0.14010310D+01  1  2 12  8  6  2       21 0.367611436352D+01
0.240273989999D-03 0.000000000000D+00 0.000000000000D+00 0.215210061917D-02 0.000000000000D+00  6 2 2 -13 13 2 2 4 0.46383997D-01 0.34446994D-02 0.28100338D+04 0.33420393D+03 0.31620902D+04 0.14010310D+01  1  2 12  8  6  2       21 0.367611436352D+01
-.285206987775D-03 0.000000000000D+00 -.333672729999D-04 0.220259471595D-02 0.000000000000D+00  6 2 2 -13 13 2 2 4 0.46383997D-01 0.34407157D-02 0.23277522D+04 0.26673100D+03 0.30336249D+04 0.14173717D+01  1  2  5  8  6  2       21 -.470692244270D+01
0.158346344884D-08 0.000000000000D+00 0.000000000000D+00 0.220259471595D-02 0.451500720655D-04  6 2 2 -13 13 2 2 4 0.46941808D-01 0.34037659D-02 0.28100338D+04 0.33420393D+03 0.31620902D+04 0.14010310D+01  1  2 11  8  6  2       21 0.243013853408D-04
0.240273952439D-03 0.000000000000D+00 0.000000000000D+00 0.215210061917D-02 0.000000000000D+00  6 2 -4 -13 13 2 -4 4 0.46383997D-01 0.34446994D-02 0.28100338D+04 0.33420393D+03 0.31620902D+04 0.14010310D+01  1  2 12  9  6  2       21 0.214645646280D+01
0.240273952439D-03 0.000000000000D+00 0.000000000000D+00 0.215210061917D-02 0.000000000000D+00  6 2 -4 -13 13 2 -4 4 0.46383997D-01 0.34446994D-02 0.28100338D+04 0.33420393D+03 0.31620902D+04 0.14010310D+01  1  2 12  9  6  2       21 0.214645646280D+01
-.285206943192D-03 0.000000000000D+00 -.333672677840D-04 0.220259494520D-02 0.000000000000D+00  6 2 -4 -13 13 2 -4 4 0.46383997D-01 0.34407157D-02 0.23277522D+04 0.26673074D+03 0.30336244D+04 0.14173717D+01  1  2  5  9  6  2       21 -.274444669852D+01
0.106830700924D-08 0.000000000000D+00 0.000000000000D+00 0.220259494520D-02 0.495278474128D-04  6 2 -4 -13 13 2 -4 4 0.46941808D-01 0.34037659D-02 0.28100338D+04 0.33420393D+03 0.31620902D+04 0.14010310D+01  1  2 11  9  6  2       21 0.959889674547D-05
0.240273952439D-03 0.000000000000D+00 0.000000000000D+00 0.215210061917D-02 0.000000000000D+00  6 2 4 -13 13 2 4 4 0.46383997D-01 0.34446994D-02 0.28100338D+04 0.33420393D+03 0.31620902D+04 0.14010310D+01  1  2 12 10  6  2       21 0.214570589136D+01
0.240273952439D-03 0.000000000000D+00 0.000000000000D+00 0.215210061917D-02 0.000000000000D+00  6 2 4 -13 13 2 4 4 0.46383997D-01 0.34446994D-02 0.28100338D+04 0.33420393D+03 0.31620902D+04 0.14010310D+01  1  2 12 10  6  2       21 0.214570589136D+01
-.285206943192D-03 0.000000000000D+00 -.333672677840D-04 0.220259494520D-02 0.000000000000D+00  6 2 4 -13 13 2 4 4 0.46383997D-01 0.34407157D-02 0.23277522D+04 0.26673074D+03 0.30336244D+04 0.14173717D+01  1  2  5 10  6  2       21 -.274348957754D+01
0.103173061968D-08 0.000000000000D+00 0.000000000000D+00 0.220259494520D-02 0.478321271514D-04  6 2 4 -13 13 2 4 4 0.46941808D-01 0.34037659D-02 0.28100338D+04 0.33420393D+03 0.31620902D+04 0.14010310D+01  1  2 11 10  6  2       21 0.926709197688D-05
  </mgrwgt>
  </event>
  <event npLO=' -1 ' npNLO=' 1 '>
  7     66 0.13243562E+02 0.63685639E+01 0.75467711E-02 0.18072643E+00
        2 -1    0    0  502    0 0.00000000E+00 0.00000000E+00 0.20756097E+02 0.20756097E+02 0.00000000E+00 0.0000E+00 0.9000E+01
       21 -1    0    0  501  502 -.00000000E+00 -.00000000E+00 -.39147652E+03 0.39147652E+03 0.00000000E+00 0.0000E+00 0.9000E+01
       23  2    1    2    0    0 -.43232076E+01 -.66629971E+01 -.82977642E+02 0.12278464E+03 0.90153724E+02 0.0000E+00 0.0000E+00
      -13  1    3    3    0    0 -.42778185E+02 0.13218226E+02 -.27996411E+02 0.52806189E+02 0.00000000E+00 0.0000E+00 0.9000E+01
       13  1    3    3    0    0 0.38454977E+02 -.19881223E+02 -.54981231E+02 0.69978455E+02 0.00000000E+00 0.0000E+00 0.9000E+01
        2  1    1    2  503    0 0.11181658E+02 -.92739499E-01 -.40429079E+02 0.41946973E+02 0.00000000E+00 0.0000E+00 0.9000E+01
       21  1    1    2  501  503 -.68584508E+01 0.67557366E+01 -.24731370E+03 0.24750100E+03 0.00000000E+00 0.0000E+00 0.9000E+01
#aMCatNLO 2  0  0  5  2 0.70915519D+01 0.00000000D+00  -5  6  0 0.00000000D+00 0.00000000D+00 0.00000000D+00 0.00000000D+00 0.00000000D+00
  <mgrwgt>
 0.3519972736D+03    1    2    0
 0.901416921282854D+02 0.000000000000000D+00 0.000000000000000D+00 0.901416921282854D+02
 0.901416921282854D+02 -.000000000000000D+00 -.000000000000000D+00 -.901416921282854D+02
 0.650112974214762D+02 -.429492464855086D+02 0.129545826633692D+02 0.470532656334138D+02
 0.476718340241721D+02 0.383287044003434D+02 -.200758364203928D+02 0.200118707331659D+02
 0.676002528109224D+02 0.462054208516521D+01 0.712125375702359D+01 -.670651363665796D+02
 0.000000000000000D+00 0.000000000000000D+00 0.000000000000000D+00 -.000000000000000D+00
 0.901416921282854D+02 0.000000000000000D+00 0.000000000000000D+00 0.901416921282854D+02
 0.901416921282854D+02 -.000000000000000D+00 -.000000000000000D+00 -.901416921282854D+02
 0.631760510077289D+02 -.427781848136578D+02 0.132182256625881D+02 0.445703806951723D+02
 0.469523918785322D+02 0.384549772227307D+02 -.198812227161431D+02 0.181790762478635D+02
 0.127800187980416D+02 0.111816583508262D+02 -.927394989717478D-01 -.618795575202549D+01
 0.573749225722681D+02 -.685845075989906D+01 0.675573655252673D+01 -.565615011910103D+02
0.718473326723D-02 0.000000000000D+00 0.000000000000D+00 0.145435682726D-01 0.298738169070D-02  6 2 21 -13 13 2 21 4 0.31932457D-02 0.60227157D-01 0.29633378D+04 0.88405519D+02 0.25135012D+04 0.15070087D+01  1  2  1  3  6  5        2 0.351997273611D+03
  </mgrwgt>
  </event>
  <event npLO=' -1 ' npNLO=' 1 '>
  6     66 0.13243562E+02 0.35182707E+02 0.75467711E-02 0.13943357E+00
        2 -1    0    0  502    0 0.00000000E+00 0.00000000E+00 0.10019444E+04 0.10019444E+04 0.00000000E+00 0.0000E+00 0.9000E+01
       21 -1    0    0  501  502 0.00000000E+00 0.00000000E+00 -.45892654E+01 0.45892654E+01 0.00000000E+00 0.0000E+00 0.9000E+01
       23  2    1    2    0    0 -.33996973E+02 0.90569699E+01 0.85149931E+03 0.85649452E+03 0.85404723E+02 0.0000E+00 0.0000E+00
      -13  1    3    3    0    0 -.48791017E+02 0.32849400E+01 0.81758795E+03 0.81904909E+03 0.00000000E+00 0.0000E+00 0.9000E+01
       13  1    3    3    0    0 0.14794044E+02 0.57720300E+01 0.33911364E+02 0.37445436E+02 0.00000000E+00 0.0000E+00 0.9000E+01
        2  1    1    2  501    0 0.33996973E+02 -.90569699E+01 0.14585578E+03 0.15003909E+03 0.00000000E+00 0.0000E+00 0.9000E+01
#aMCatNLO 1  0  0  1  5 0.54685280D+02 0.00000000D+00  -5  6  0 0.00000000D+00 0.00000000D+00 0.00000000D+00 0.00000000D+00 0.00000000D+00
  <mgrwgt>
 0.1552436052D+03    4    2    0
 0.678099444434627D+02 0.000000000000000D+00 0.000000000000000D+00 0.678099444434627D+02
 0.678099444434627D+02 0.000000000000000D+00 0.000000000000000D+00 -.678099444434627D+02
 0.661771792623254D+02 -.487910170586416D+02 0.328493997748242D+01 0.445877211667701D+02
 0.285239785016425D+02 0.147940440995064D+02 0.577202996043912D+01 -.236946677309436D+02
 0.409187311229574D+02 0.339969729591352D+02 -.905696993792154D+01 -.208930534358265D+02
 0.000000000000000D+00 -.000000000000000D+00 -.000000000000000D+00 -.000000000000000D+00
 0.707804788639203D+02 0.000000000000000D+00 0.000000000000000D+00 0.707804788639203D+02
 0.990499356296526D+02 0.000000000000000D+00 0.000000000000000D+00 -.990499356296526D+02
 0.613604599963314D+02 -.415812852346953D+02 0.693093719107767D+01 0.445877211667701D+02
 0.307645370223275D+02 0.181456373989620D+02 0.746694734839697D+01 -.236946677309436D+02
 0.445877405124871D+02 0.388306732948702D+02 -.661254365608545D+01 -.208930534358265D+02
 0.331176769624268D+02 -.153950254591370D+02 -.778534088338919D+01 -.282694567657323D+02
0.171854337170D-02 0.000000000000D+00 0.000000000000D+00 0.478559261932D-04 0.000000000000D+00  6 2 21 -13 13 2 21 2 0.15414529D+00 0.70604083D-03 0.24982183D+04 0.12378229D+04 0.40672758D+04 0.13165327D+01  1  2  2  1  6  1        2 0.492303746027D+03
-.121641056016D-03 0.834348232688D-04 0.378595809021D-05 0.478559261932D-04 0.000000000000D+00  6 2 21 -13 13 2 21 4 0.15414529D+00 0.70604083D-03 0.24982183D+04 0.12378229D+04 0.40672758D+04 0.13165327D+01  1  2  3  1  6  1        2 -.885719122474D+02
0.114799619646D-03 0.000000000000D+00 0.000000000000D+00 0.478559261932D-04 0.000000000000D+00  6 2 21 -13 13 2 21 4 0.15414529D+00 0.70604083D-03 0.24982183D+04 0.12378229D+04 0.40672758D+04 0.13165327D+01  1  2 15  1  6  1        2 0.570002046010D+02
-.615260176364D-03 0.000000000000D+00 0.000000000000D+00 0.478559261932D-04 0.000000000000D+00  6 2 21 -13 13 2 21 4 0.15414529D+00 0.70604083D-03 0.24982183D+04 0.12378229D+04 0.40672758D+04 0.13165327D+01  1  2  4  1  6  1        2 -.305488433184D+03
  </mgrwgt>
  </event>
  <event npLO=' -1 ' npNLO=' 1 '>
  7     66 0.13243562E+02 0.11195937E+02 0.75467711E-02 0.16996744E+00
        4 -1    0    0  502    0 0.00000000E+00 0.00000000E+00 0.42603784E+01 0.42603784E+01 0.00000000E+00 0.0000E+00 0.9000E+01
       21 -1    0    0  501  502 -.00000000E+00 -.00000000E+00 -.12154975E+04 0.12154975E+04 0.00000000E+00 0.0000E+00 0.9000E+01
       23  2    1    2    0    0 0.27085123E+01 0.11131325E+02 -.52309453E+03 0.53110841E+03 0.91197682E+02 0.0000E+00 0.0000E+00
      -11  1    3    3    0    0 0.36511235E+02 0.23635164E+02 -.14723147E+03 0.15352132E+03 0.00000000E+00 0.0000E+00 0.9000E+01
       11  1    3    3    0    0 -.33802723E+02 -.12503839E+02 -.37586306E+03 0.37758709E+03 0.00000000E+00 0.0000E+00 0.9000E+01
        4  1    1    2  503    0 0.51700645E+01 0.17730041E+00 -.36879218E+02 0.37240270E+02 0.00000000E+00 0.0000E+00 0.9000E+01
       21  1    1    2  501  503 -.78785767E+01 -.11308626E+02 -.65126342E+03 0.65140924E+03 0.00000000E+00 0.0000E+00 0.9000E+01
#aMCatNLO 2  0  0  5  2 0.76346395D+01 0.00000000D+00  -5  6  0 0.00000000D+00 0.00000000D+00 0.00000000D+00 0.00000000D+00 0.00000000D+00
  <mgrwgt>
 0.9819230558D+02    2    2    0
 0.719616526978099D+02 0.000000000000000D+00 0.000000000000000D+00 0.719616526978099D+02
 0.719616526978099D+02 -.000000000000000D+00 -.000000000000000D+00 -.719616526978099D+02
 0.645990730424576D+02 0.367284369152017D+02 0.245278104742105D+02 0.471428538916773D+02
 0.362565008031927D+02 -.336772964679949D+02 -.119883668665792D+02 -.605414015125107D+01
 0.430677315499695D+02 -.305114044720675D+01 -.125394436076313D+02 -.410887137404262D+02
 0.000000000000000D+00 0.000000000000000D+00 0.000000000000000D+00 0.000000000000000D+00
 0.719616526978099D+02 0.000000000000000D+00 0.000000000000000D+00 0.719616526978099D+02
 0.719616526978099D+02 -.000000000000000D+00 -.000000000000000D+00 -.719616526978099D+02
 0.620234733298273D+02 0.365112351979887D+02 0.236351643533262D+02 0.442178691730413D+02
 0.368636336656802D+02 -.338027229360648D+02 -.125038390811426D+02 -.774321750811642D+01
 0.524331406116442D+01 0.517006446903402D+01 0.177300412637638D+00 0.855184362412478D+00
 0.397928843389479D+02 -.787857673095802D+01 -.113086256848212D+02 -.373298360273374D+02
-.426889170958D-02 0.000000000000D+00 0.000000000000D+00 0.750508774370D-02 0.000000000000D+00  6 4 21 -11 11 4 21 4 0.65544283D-03 0.18699962D+00 0.24250896D+04 0.15088888D+03 0.27198786D+04 0.14614629D+01  1  2 13  3  6  5        4 -.612426479950D+02
0.111133429697D-01 0.000000000000D+00 0.000000000000D+00 0.750508774370D-02 0.765049510259D-03  6 4 21 -11 11 4 21 4 0.65544283D-03 0.18699962D+00 0.24250896D+04 0.15088888D+03 0.27198786D+04 0.14614629D+01  1  2  1  3  6  5        4 0.159434953576D+03
  </mgrwgt>
  </event>
  <event npLO=' -1 ' npNLO=' 1 '>
  6     66 -.13243562E+02 0.16986694E+02 0.75467711E-02 0.13518082E+00
        2 -1    0    0  502    0 0.00000000E+00 0.00000000E+00 0.15807952E+04 0.15807952E+04 0.00000000E+00 0.0000E+00 0.9000E+01
       21 -1    0    0  501  502 0.00000000E+00 0.00000000E+00 -.23363211E+01 0.23363211E+01 0.00000000E+00 0.0000E+00 0.9000E+01
       23  2    1    2    0    0 0.55058216E+01 0.16069651E+02 0.97126012E+03 0.97569521E+03 0.91358418E+02 0.0000E+00 0.0000E+00
      -13  1    3    3    0    0 -.19405341E+02 0.16383963E+02 0.76841962E+02 0.80930147E+02 0.00000000E+00 0.0000E+00 0.9000E+01
       13  1    3    3    0    0 0.24911163E+02 -.31431129E+00 0.89441816E+03 0.89476506E+03 0.00000000E+00 0.0000E+00 0.9000E+01
        2  1    1    2  501    0 -.55058216E+01 -.16069651E+02 0.60719872E+03 0.60743628E+03 0.00000000E+00 0.0000E+00 0.9000E+01
#aMCatNLO 1  0  0  2  1 0.27068013D+02 0.00000000D+00  -5  6  0 0.00000000D+00 0.00000000D+00 0.00000000D+00 0.00000000D+00 0.00000000D+00
  <mgrwgt>
 -.8063006095D+03   14    2    0
 0.607720746547303D+02 0.000000000000000D+00 0.000000000000000D+00 0.607720746547303D+02
 0.607720746547303D+02 0.000000000000000D+00 0.000000000000000D+00 -.607720746547303D+02
 0.562033519135596D+02 -.194053410420944D+02 0.163839625546053D+02 -.501379624273735D+02
 0.389034092778423D+02 0.249111626237721D+02 -.314311290527078D+00 0.298799337111703D+02
 0.264373881180587D+02 -.550582158167764D+01 -.160696512640782D+02 0.202580287162032D+02
 0.000000000000000D+00 0.000000000000000D+00 0.000000000000000D+00 -.000000000000000D+00
 0.647161828567028D+02 0.000000000000000D+00 0.000000000000000D+00 0.647161828567028D+02
 0.574377798109070D+03 0.000000000000000D+00 0.000000000000000D+00 -.574377798109070D+03
 0.647080427569812D+02 -.385075724484340D+02 0.138015356101844D+02 -.501379624273735D+02
 0.328697917103372D+02 0.135720469201968D+02 -.184724413465023D+01 0.298799337111703D+02
 0.303056533644518D+02 -.144703919768162D+02 -.172815697903024D+02 0.202580287162032D+02
 0.511210493134003D+03 0.394059175050534D+02 0.532727831476814D+01 -.509661615252367D+03
0.355727252722D-04 0.000000000000D+00 0.000000000000D+00 0.803273818272D-03 0.000000000000D+00  6 2 21 -13 13 2 21 2 0.24319926D+00 0.35943401D-03 0.11322121D+04 0.28854805D+03 0.30201020D+04 0.14116090D+01  1  2  2  2  6  2       21 0.149389177927D+02
-.207652466938D-05 0.172704634352D-05 0.783668595469D-07 0.803273818272D-03 0.000000000000D+00  6 2 21 -13 13 2 21 4 0.24319926D+00 0.35943401D-03 0.11322121D+04 0.28854805D+03 0.30201020D+04 0.14116090D+01  1  2  3  2  6  2       21 -.364904838993D+01
0.245296865953D-05 0.000000000000D+00 0.000000000000D+00 0.803273818272D-03 0.000000000000D+00  6 2 21 -13 13 2 21 4 0.24319926D+00 0.35943401D-03 0.11322121D+04 0.28854805D+03 0.30201020D+04 0.14116090D+01  1  2 15  2  6  2       21 0.205268742780D+01
-.227835882876D-01 0.000000000000D+00 -.795972657586D-03 0.803273818272D-03 0.000000000000D+00  6 2 21 -13 13 2 21 4 0.24319926D+00 0.36336653D-02 0.11322121D+04 0.28854805D+03 0.30201020D+04 0.14116090D+01  1  2  5  2  6  2       21 -.674189613755D+03
-.993302663623D-02 0.000000000000D+00 -.348085701450D-03 0.803273818272D-03 0.000000000000D+00  6 2 -1 -13 13 2 -1 4 0.24319926D+00 0.36336653D-02 0.11322121D+04 0.28854805D+03 0.30201020D+04 0.14116090D+01  1  2  5  5  6  2       21 -.176598493449D+02
-.993302663623D-02 0.000000000000D+00 -.348085701450D-03 0.803273818272D-03 0.000000000000D+00  6 2 -3 -13 13 2 -3 4 0.24319926D+00 0.36336653D-02 0.11322121D+04 0.28854805D+03 0.30201020D+04 0.14116090D+01  1  2  5  5  6  2       21 -.159458093103D+02
-.993302663623D-02 0.000000000000D+00 -.348085701450D-03 0.803273818272D-03 0.000000000000D+00  6 2 -5 -13 13 2 -5 4 0.24319926D+00 0.36336653D-02 0.11322121D+04 0.28854805D+03 0.30201020D+04 0.14116090D+01  1  2  5  5  6  2       21 -.771833842791D+01
-.993302663623D-02 0.000000000000D+00 -.348085701450D-03 0.803273818272D-03 0.000000000000D+00  6 2 1 -13 13 2 1 4 0.24319926D+00 0.36336653D-02 0.11322121D+04 0.28854805D+03 0.30201020D+04 0.14116090D+01  1  2  5  6  6  2       21 -.192432787912D+02
-.993302663623D-02 0.000000000000D+00 -.348085701450D-03 0.803273818272D-03 0.000000000000D+00  6 2 3 -13 13 2 3 4 0.24319926D+00 0.36336653D-02 0.11322121D+04 0.28854805D+03 0.30201020D+04 0.14116090D+01  1  2  5  6  6  2       21 -.159220385836D+02
-.993302663623D-02 0.000000000000D+00 -.348085701450D-03 0.803273818272D-03 0.000000000000D+00  6 2 5 -13 13 2 5 4 0.24319926D+00 0.36336653D-02 0.11322121D+04 0.28854805D+03 0.30201020D+04 0.14116090D+01  1  2  5  6  6  2       21 -.771681907883D+01
-.993302663623D-02 0.000000000000D+00 -.348085701450D-03 0.803273818272D-03 0.000000000000D+00  6 2 -2 -13 13 2 -2 4 0.24319926D+00 0.36336653D-02 0.11322121D+04 0.28854805D+03 0.30201020D+04 0.14116090D+01  1  2  5  7  6  2       21 -.175436759069D+02
-.993302516894D-02 0.000000000000D+00 -.348085650031D-03 0.803273901174D-03 0.000000000000D+00  6 2 2 -13 13 2 2 4 0.24319926D+00 0.36336653D-02 0.11322121D+04 0.28854776D+03 0.30201015D+04 0.14116091D+01  1  2  5  8  6  2       21 -.203164958133D+02
-.993302663623D-02 0.000000000000D+00 -.348085701450D-03 0.803273818272D-03 0.000000000000D+00  6 2 -4 -13 13 2 -4 4 0.24319926D+00 0.36336653D-02 0.11322121D+04 0.28854805D+03 0.30201020D+04 0.14116090D+01  1  2  5  9  6  2       21 -.116959048866D+02
-.993302663623D-02 0.000000000000D+00 -.348085701450D-03 0.803273818272D-03 0.000000000000D+00  6 2 4 -13 13 2 4 4 0.24319926D+00 0.36336653D-02 0.11322121D+04 0.28854805D+03 0.30201020D+04 0.14116090D+01  1  2  5 10  6  2       21 -.116913424598D+02
  </mgrwgt>
  </event>
</LesHouchesEvents>
